version 2
run seapp-attacks-0-20160116-11:47:21-8023
attr ber 0
attr configname seapp-attacks
attr datetime 20160116-11:47:21
attr experiment seapp-attacks
attr inifile omnetpp.ini
attr iterationvars $ber=0
attr iterationvars2 "$ber=0, $repetition=0"
attr measurement $ber=0
attr network ber
attr processid 8023
attr repetition 0
attr replication #0
attr resultdir results
attr runnumber 0
attr seedset 0

vector 11  ber.client.ppp[0].queue  queueLength:vector  ETV
attr interpolationmode  sample-hold
attr title  "queue length, vector"
vector 12  ber.client.ppp[0].ppp  txState:vector  ETV
attr interpolationmode  sample-hold
attr title  "tx state, vector"
vector 29  ber.server.ppp[0].queue  queueLength:vector  ETV
attr interpolationmode  sample-hold
attr title  "queue length, vector"
vector 30  ber.server.ppp[0].ppp  txState:vector  ETV
attr interpolationmode  sample-hold
attr title  "tx state, vector"
vector 78  ber.client.tcp  tcpRcvQueueBytes  ETV
vector 65  ber.client.tcp  "advertised window"  ETV
vector 64  ber.client.tcp  "receive window"  ETV
vector 67  ber.client.tcp  "sent ack"  ETV
vector 8  ber.client.ppp[0].queue  rcvdPk:vector(packetBytes)  ETV
attr interpolationmode  none
attr title  "received packets, vector(packetBytes)"
vector 10  ber.client.ppp[0].queue  queueingTime:vector  ETV
attr interpolationmode  none
attr title  "queueing time, vector"
vector 17  ber.client.ppp[0].ppp  rcvdPkFromHL:vector(packetBytes)  ETV
attr interpolationmode  none
attr source  packetReceivedFromUpper
attr title  "packets received from higher layer, vector(packetBytes)"
vector 13  ber.client.ppp[0].ppp  txPk:vector(packetBytes)  ETV
attr interpolationmode  none
attr source  packetSentToLower
attr title  "packets transmitted, vector(packetBytes)"
vector 32  ber.server.ppp[0].ppp  rxPkOk:vector(packetBytes)  ETV
attr interpolationmode  none
attr source  rxPkOk
attr title  "packets received OK, vector(packetBytes)"
vector 36  ber.server.ppp[0].ppp  passedUpPk:vector(packetBytes)  ETV
attr interpolationmode  none
attr source  packetSentToUpper
attr title  "packets passed to higher layer, vector(packetBytes)"
vector 44  ber.server.tcp  "rcvd seq"  ETV
vector 45  ber.server.tcp  "rcvd ack"  ETV
vector 41  ber.server.tcp  "advertised window"  ETV
vector 39  ber.server.tcp  "send window"  ETV
vector 54  ber.server.tcp  tcpRcvQueueBytes  ETV
vector 40  ber.server.tcp  "receive window"  ETV
vector 43  ber.server.tcp  "sent ack"  ETV
vector 26  ber.server.ppp[0].queue  rcvdPk:vector(packetBytes)  ETV
attr interpolationmode  none
attr title  "received packets, vector(packetBytes)"
vector 28  ber.server.ppp[0].queue  queueingTime:vector  ETV
attr interpolationmode  none
attr title  "queueing time, vector"
vector 35  ber.server.ppp[0].ppp  rcvdPkFromHL:vector(packetBytes)  ETV
attr interpolationmode  none
attr source  packetReceivedFromUpper
attr title  "packets received from higher layer, vector(packetBytes)"
vector 31  ber.server.ppp[0].ppp  txPk:vector(packetBytes)  ETV
attr interpolationmode  none
attr source  packetSentToLower
attr title  "packets transmitted, vector(packetBytes)"
vector 14  ber.client.ppp[0].ppp  rxPkOk:vector(packetBytes)  ETV
attr interpolationmode  none
attr source  rxPkOk
attr title  "packets received OK, vector(packetBytes)"
vector 18  ber.client.ppp[0].ppp  passedUpPk:vector(packetBytes)  ETV
attr interpolationmode  none
attr source  packetSentToUpper
attr title  "packets passed to higher layer, vector(packetBytes)"
vector 68  ber.client.tcp  "rcvd seq"  ETV
vector 69  ber.client.tcp  "rcvd ack"  ETV
vector 63  ber.client.tcp  "send window"  ETV
vector 1  ber.client.tcpApp[0]  sentPk:vector(packetBytes)  ETV
attr interpolationmode  none
attr source  sentPk
attr title  "packets sent, vector(packetBytes)"
vector 66  ber.client.tcp  "sent seq"  ETV
vector 70  ber.client.tcp  "unacked bytes"  ETV
vector 46  ber.server.tcp  "unacked bytes"  ETV
vector 47  ber.server.tcp  "rcvd dupAcks"  ETV
vector 19  ber.server.tcpApp[0]  rcvdPk:vector(packetBytes)  ETV
attr interpolationmode  none
attr source  rcvdPk
attr title  "packets received, vector(packetBytes)"
vector 20  ber.server.tcpApp[0]  endToEndDelay:vector  ETV
attr interpolationmode  none
attr source  messageAge(rcvdPk)
attr title  "end-to-end delay, vector"
attr unit  s
vector 82  ber.client.tcp  "measured RTT"  ETV
vector 83  ber.client.tcp  "smoothed RTT"  ETV
vector 84  ber.client.tcp  RTTVAR  ETV
vector 85  ber.client.tcp  RTO  ETV
vector 80  ber.client.tcp  cwnd  ETV
vector 71  ber.client.tcp  "rcvd dupAcks"  ETV
vector 37  ber.server.ppp[0].outputHook[0]  "thruput (bit/sec)"  ETV
vector 38  ber.server.ppp[0].outputHook[0]  packet/sec  ETV
1	42	0.000082729998	104857600
8	17	0	44
8	43	0.000082729998	40
8	53	0.000082729998	1492
8	89	0.001358259996	1492
8	90	0.001358259996	1492
8	119	0.002596189994	1492
8	120	0.002596189994	1492
8	148	0.003795389994	1492
8	149	0.003795389994	1492
8	177	0.004994589994	1492
8	178	0.004994589994	1492
8	206	0.006193789994	1492
8	207	0.006193789994	1492
8	235	0.007392989994	1492
8	236	0.007392989994	1492
8	264	0.008592189994	1492
8	265	0.008592189994	1492
8	293	0.009791389994	1492
8	294	0.009791389994	1492
8	322	0.010990589994	1492
8	323	0.010990589994	1492
8	351	0.012189789994	1492
8	352	0.012189789994	1492
8	380	0.013388989994	1492
8	381	0.013388989994	1492
8	409	0.014588189994	1492
8	410	0.014588189994	1492
8	438	0.015787389994	1492
8	439	0.015787389994	1492
8	467	0.016986589994	1492
8	468	0.016986589994	1492
8	496	0.018185789994	1492
8	497	0.018185789994	1492
8	525	0.019384989994	1492
8	526	0.019384989994	1492
8	554	0.020584189994	1492
8	555	0.020584189994	1492
8	583	0.021783389994	1492
8	584	0.021783389994	1492
8	612	0.022982589994	1492
8	613	0.022982589994	1492
8	641	0.024181789994	1492
8	642	0.024181789994	1492
8	670	0.025380989994	1492
8	671	0.025380989994	1492
8	699	0.026580189994	1492
8	700	0.026580189994	1492
8	728	0.027779389994	1492
8	729	0.027779389994	1492
8	757	0.028978589994	1492
8	758	0.028978589994	1492
8	786	0.030177789994	1492
8	787	0.030177789994	1492
8	815	0.031376989994	1492
8	816	0.031376989994	1492
8	844	0.032576189994	1492
8	845	0.032576189994	1492
8	873	0.033775389994	1492
8	874	0.033775389994	1492
8	902	0.034974589994	1492
8	903	0.034974589994	1492
8	931	0.036173789994	1492
8	932	0.036173789994	1492
8	960	0.037372989994	1492
8	961	0.037372989994	1492
8	989	0.038572189994	1492
8	990	0.038572189994	1492
8	1018	0.039771389994	1492
8	1019	0.039771389994	1492
8	1047	0.040970589994	1492
8	1048	0.040970589994	1492
8	1076	0.042169789994	1492
8	1077	0.042169789994	1492
8	1105	0.043368989994	1492
8	1106	0.043368989994	1492
8	1134	0.044568189994	1492
8	1135	0.044568189994	1492
8	1163	0.045767389994	1492
8	1164	0.045767389994	1492
8	1192	0.046966589994	1492
8	1193	0.046966589994	1492
8	1221	0.048165789994	1492
8	1222	0.048165789994	1492
8	1250	0.049364989994	1492
8	1251	0.049364989994	1492
8	1279	0.050564189994	1492
8	1280	0.050564189994	1492
8	1308	0.051763389994	1492
8	1309	0.051763389994	1492
8	1337	0.052962589994	1492
8	1338	0.052962589994	1492
8	1363	0.054161789994	1492
8	1388	0.055360989994	1492
8	1413	0.056560189994	1492
8	1438	0.057759389994	1492
8	1463	0.058958589994	1492
8	1488	0.060157789994	1492
8	1513	0.061356989994	1492
8	1538	0.062556189994	1492
8	1563	0.063755389994	1492
8	1588	0.064954589994	1492
8	1613	0.066153789994	1492
8	1638	0.067352989994	1492
8	1663	0.068552189994	1492
8	1688	0.069751389994	1492
8	1713	0.070950589994	1492
8	1738	0.072149789994	1492
8	1763	0.073348989994	1492
8	1788	0.074548189994	1492
8	1813	0.075747389994	1492
8	1838	0.076946589994	1492
8	1863	0.078145789994	1492
8	1888	0.079344989994	1492
8	1913	0.080544189994	1492
8	1938	0.081743389994	1492
8	1963	0.082942589994	1492
8	1988	0.084141789994	1492
8	2013	0.085340989994	1492
8	2038	0.086540189994	1492
8	2063	0.087739389994	1492
8	2088	0.088938589994	1492
8	2113	0.090137789994	1492
8	2138	0.091336989994	1492
8	2163	0.092536189994	1492
8	2188	0.093735389994	1492
8	2213	0.094934589994	1492
8	2238	0.096133789994	1492
8	2263	0.097332989994	1492
8	2288	0.098532189994	1492
8	2313	0.099731389994	1492
8	2338	0.100930589994	1492
8	2363	0.102129789994	1492
8	2388	0.103328989994	1492
8	2413	0.104528189994	1492
8	2438	0.105727389994	1492
8	2463	0.106926589994	1492
8	2488	0.108125789994	1492
8	2513	0.109324989994	1492
8	2538	0.110524189994	1492
8	2563	0.111723389994	1492
8	2588	0.112922589994	1492
8	2613	0.114121789994	1492
8	2638	0.115320989994	1492
8	2663	0.116520189994	1492
8	2688	0.117719389994	1492
8	2713	0.118918589994	1492
8	2738	0.120117789994	1492
8	2763	0.121316989994	1492
8	2788	0.122516189994	1492
8	2813	0.123715389994	1492
8	2838	0.124914589994	1492
8	2863	0.126113789994	1492
8	2888	0.127312989994	1492
8	2913	0.128512189994	1492
8	2938	0.129711389994	1492
8	2963	0.130910589994	1492
8	2988	0.132109789994	1492
8	3013	0.133308989994	1492
8	3038	0.134508189994	1492
8	3063	0.135707389994	1492
8	3088	0.136906589994	1492
8	3113	0.138105789994	1492
8	3138	0.139304989994	1492
8	3163	0.140504189994	1492
8	3188	0.141703389994	1492
8	3213	0.142902589994	1492
8	3238	0.144101789994	1492
8	3263	0.145300989994	1492
8	3288	0.146500189994	1492
8	3313	0.147699389994	1492
8	3338	0.148898589994	1492
8	3363	0.150097789994	1492
8	3388	0.151296989994	1492
8	3413	0.152496189994	1492
8	3438	0.153695389994	1492
8	3463	0.154894589994	1492
8	3488	0.156093789994	1492
8	3513	0.157292989994	1492
8	3538	0.158492189994	1492
8	3563	0.159691389994	1492
8	3588	0.160890589994	1492
8	3613	0.162089789994	1492
8	3638	0.163288989994	1492
8	3663	0.164488189994	1492
8	3688	0.165687389994	1492
8	3713	0.166886589994	1492
8	3738	0.168085789994	1492
8	3763	0.169284989994	1492
8	3788	0.170484189994	1492
8	3813	0.171683389994	1492
8	3838	0.172882589994	1492
8	3863	0.174081789994	1492
8	3888	0.175280989994	1492
8	3913	0.176480189994	1492
8	3938	0.177679389994	1492
8	3963	0.178878589994	1492
8	3988	0.180077789994	1492
8	4013	0.181276989994	1492
8	4038	0.182476189994	1492
8	4063	0.183675389994	1492
8	4088	0.184874589994	1492
8	4113	0.186073789994	1492
8	4138	0.187272989994	1492
8	4163	0.188472189994	1492
8	4188	0.189671389994	1492
8	4213	0.190870589994	1492
8	4238	0.192069789994	1492
8	4263	0.193268989994	1492
8	4288	0.194468189994	1492
8	4313	0.195667389994	1492
8	4338	0.196866589994	1492
8	4363	0.198065789994	1492
8	4388	0.199264989994	1492
8	4413	0.200464189994	1492
8	4438	0.201663389994	1492
8	4463	0.202862589994	1492
8	4488	0.204061789994	1492
8	4513	0.205260989994	1492
8	4538	0.206460189994	1492
8	4563	0.207659389994	1492
8	4588	0.208858589994	1492
8	4613	0.210057789994	1492
8	4638	0.211256989994	1492
8	4663	0.212456189994	1492
8	4688	0.213655389994	1492
8	4713	0.214854589994	1492
8	4738	0.216053789994	1492
8	4763	0.217252989994	1492
8	4788	0.218452189994	1492
8	4813	0.219651389994	1492
8	4838	0.220850589994	1492
8	4863	0.222049789994	1492
8	4888	0.223248989994	1492
8	4913	0.224448189994	1492
8	4938	0.225647389994	1492
8	4963	0.226846589994	1492
8	4988	0.228045789994	1492
8	5013	0.229244989994	1492
8	5038	0.230444189994	1492
8	5063	0.231643389994	1492
8	5088	0.232842589994	1492
8	5113	0.234041789994	1492
8	5138	0.235240989994	1492
8	5163	0.236440189994	1492
8	5188	0.237639389994	1492
8	5213	0.238838589994	1492
8	5238	0.240037789994	1492
8	5263	0.241236989994	1492
8	5288	0.242436189994	1492
8	5313	0.243635389994	1492
8	5338	0.244834589994	1492
8	5363	0.246033789994	1492
10	17	0	0
10	43	0.000082729998	0
10	54	0.000120329998	3.76e-05
10	89	0.001358259996	0
10	92	0.002557459996	0.0011992
10	121	0.003756659996	0.001160470002
10	150	0.004955859996	0.002359670002
10	179	0.006155059996	0.002359670002
10	208	0.007354259996	0.003558870002
10	237	0.008553459996	0.003558870002
10	266	0.009752659996	0.004758070002
10	295	0.010951859996	0.004758070002
10	324	0.012151059996	0.005957270002
10	353	0.013350259996	0.005957270002
10	382	0.014549459996	0.007156470002
10	411	0.015748659996	0.007156470002
10	440	0.016947859996	0.008355670002
10	469	0.018147059996	0.008355670002
10	498	0.019346259996	0.009554870002
10	527	0.020545459996	0.009554870002
10	556	0.021744659996	0.010754070002
10	585	0.022943859996	0.010754070002
10	614	0.024143059996	0.011953270002
10	643	0.025342259996	0.011953270002
10	672	0.026541459996	0.013152470002
10	701	0.027740659996	0.013152470002
10	730	0.028939859996	0.014351670002
10	759	0.030139059996	0.014351670002
10	788	0.031338259996	0.015550870002
10	817	0.032537459996	0.015550870002
10	846	0.033736659996	0.016750070002
10	875	0.034935859996	0.016750070002
10	904	0.036135059996	0.017949270002
10	933	0.037334259996	0.017949270002
10	962	0.038533459996	0.019148470002
10	991	0.039732659996	0.019148470002
10	1020	0.040931859996	0.020347670002
10	1049	0.042131059996	0.020347670002
10	1078	0.043330259996	0.021546870002
10	1107	0.044529459996	0.021546870002
10	1136	0.045728659996	0.022746070002
10	1165	0.046927859996	0.022746070002
10	1194	0.048127059996	0.023945270002
10	1223	0.049326259996	0.023945270002
10	1252	0.050525459996	0.025144470002
10	1281	0.051724659996	0.025144470002
10	1310	0.052923859996	0.026343670002
10	1339	0.054123059996	0.026343670002
10	1364	0.055322259996	0.027542870002
10	1389	0.056521459996	0.027542870002
10	1414	0.057720659996	0.028742070002
10	1439	0.058919859996	0.028742070002
10	1464	0.060119059996	0.029941270002
10	1489	0.061318259996	0.029941270002
10	1514	0.062517459996	0.031140470002
10	1539	0.063716659996	0.031140470002
10	1564	0.064915859996	0.032339670002
10	1589	0.066115059996	0.032339670002
10	1614	0.067314259996	0.033538870002
10	1639	0.068513459996	0.033538870002
10	1664	0.069712659996	0.034738070002
10	1689	0.070911859996	0.034738070002
10	1714	0.072111059996	0.035937270002
10	1739	0.073310259996	0.035937270002
10	1764	0.074509459996	0.037136470002
10	1789	0.075708659996	0.037136470002
10	1814	0.076907859996	0.038335670002
10	1839	0.078107059996	0.038335670002
10	1864	0.079306259996	0.039534870002
10	1889	0.080505459996	0.039534870002
10	1914	0.081704659996	0.040734070002
10	1939	0.082903859996	0.040734070002
10	1964	0.084103059996	0.041933270002
10	1989	0.085302259996	0.041933270002
10	2014	0.086501459996	0.043132470002
10	2039	0.087700659996	0.043132470002
10	2064	0.088899859996	0.044331670002
10	2089	0.090099059996	0.044331670002
10	2114	0.091298259996	0.045530870002
10	2139	0.092497459996	0.045530870002
10	2164	0.093696659996	0.046730070002
10	2189	0.094895859996	0.046730070002
10	2214	0.096095059996	0.047929270002
10	2239	0.097294259996	0.047929270002
10	2264	0.098493459996	0.049128470002
10	2289	0.099692659996	0.049128470002
10	2314	0.100891859996	0.050327670002
10	2339	0.102091059996	0.050327670002
10	2364	0.103290259996	0.051526870002
10	2389	0.104489459996	0.051526870002
10	2414	0.105688659996	0.052726070002
10	2439	0.106887859996	0.052726070002
10	2464	0.108087059996	0.052726070002
10	2489	0.109286259996	0.052726070002
10	2514	0.110485459996	0.052726070002
10	2539	0.111684659996	0.052726070002
10	2564	0.112883859996	0.052726070002
10	2589	0.114083059996	0.052726070002
10	2614	0.115282259996	0.052726070002
10	2639	0.116481459996	0.052726070002
10	2664	0.117680659996	0.052726070002
10	2689	0.118879859996	0.052726070002
10	2714	0.120079059996	0.052726070002
10	2739	0.121278259996	0.052726070002
10	2764	0.122477459996	0.052726070002
10	2789	0.123676659996	0.052726070002
10	2814	0.124875859996	0.052726070002
10	2839	0.126075059996	0.052726070002
10	2864	0.127274259996	0.052726070002
10	2889	0.128473459996	0.052726070002
10	2914	0.129672659996	0.052726070002
10	2939	0.130871859996	0.052726070002
10	2964	0.132071059996	0.052726070002
10	2989	0.133270259996	0.052726070002
10	3014	0.134469459996	0.052726070002
10	3039	0.135668659996	0.052726070002
10	3064	0.136867859996	0.052726070002
10	3089	0.138067059996	0.052726070002
10	3114	0.139266259996	0.052726070002
10	3139	0.140465459996	0.052726070002
10	3164	0.141664659996	0.052726070002
10	3189	0.142863859996	0.052726070002
10	3214	0.144063059996	0.052726070002
10	3239	0.145262259996	0.052726070002
10	3264	0.146461459996	0.052726070002
10	3289	0.147660659996	0.052726070002
10	3314	0.148859859996	0.052726070002
10	3339	0.150059059996	0.052726070002
10	3364	0.151258259996	0.052726070002
10	3389	0.152457459996	0.052726070002
10	3414	0.153656659996	0.052726070002
10	3439	0.154855859996	0.052726070002
10	3464	0.156055059996	0.052726070002
10	3489	0.157254259996	0.052726070002
10	3514	0.158453459996	0.052726070002
10	3539	0.159652659996	0.052726070002
10	3564	0.160851859996	0.052726070002
10	3589	0.162051059996	0.052726070002
10	3614	0.163250259996	0.052726070002
10	3639	0.164449459996	0.052726070002
10	3664	0.165648659996	0.052726070002
10	3689	0.166847859996	0.052726070002
10	3714	0.168047059996	0.052726070002
10	3739	0.169246259996	0.052726070002
10	3764	0.170445459996	0.052726070002
10	3789	0.171644659996	0.052726070002
10	3814	0.172843859996	0.052726070002
10	3839	0.174043059996	0.052726070002
10	3864	0.175242259996	0.052726070002
10	3889	0.176441459996	0.052726070002
10	3914	0.177640659996	0.052726070002
10	3939	0.178839859996	0.052726070002
10	3964	0.180039059996	0.052726070002
10	3989	0.181238259996	0.052726070002
10	4014	0.182437459996	0.052726070002
10	4039	0.183636659996	0.052726070002
10	4064	0.184835859996	0.052726070002
10	4089	0.186035059996	0.052726070002
10	4114	0.187234259996	0.052726070002
10	4139	0.188433459996	0.052726070002
10	4164	0.189632659996	0.052726070002
10	4189	0.190831859996	0.052726070002
10	4214	0.192031059996	0.052726070002
10	4239	0.193230259996	0.052726070002
10	4264	0.194429459996	0.052726070002
10	4289	0.195628659996	0.052726070002
10	4314	0.196827859996	0.052726070002
10	4339	0.198027059996	0.052726070002
10	4364	0.199226259996	0.052726070002
10	4389	0.200425459996	0.052726070002
10	4414	0.201624659996	0.052726070002
10	4439	0.202823859996	0.052726070002
10	4464	0.204023059996	0.052726070002
10	4489	0.205222259996	0.052726070002
10	4514	0.206421459996	0.052726070002
10	4539	0.207620659996	0.052726070002
10	4564	0.208819859996	0.052726070002
10	4589	0.210019059996	0.052726070002
10	4614	0.211218259996	0.052726070002
10	4639	0.212417459996	0.052726070002
10	4664	0.213616659996	0.052726070002
10	4689	0.214815859996	0.052726070002
10	4714	0.216015059996	0.052726070002
10	4739	0.217214259996	0.052726070002
10	4764	0.218413459996	0.052726070002
10	4789	0.219612659996	0.052726070002
10	4814	0.220811859996	0.052726070002
10	4839	0.222011059996	0.052726070002
10	4864	0.223210259996	0.052726070002
10	4889	0.224409459996	0.052726070002
10	4914	0.225608659996	0.052726070002
10	4939	0.226807859996	0.052726070002
10	4964	0.228007059996	0.052726070002
10	4989	0.229206259996	0.052726070002
10	5014	0.230405459996	0.052726070002
10	5039	0.231604659996	0.052726070002
10	5064	0.232803859996	0.052726070002
10	5089	0.234003059996	0.052726070002
10	5114	0.235202259996	0.052726070002
10	5139	0.236401459996	0.052726070002
10	5164	0.237600659996	0.052726070002
10	5189	0.238799859996	0.052726070002
10	5214	0.239999059996	0.052726070002
10	5239	0.241198259996	0.052726070002
10	5264	0.242397459996	0.052726070002
10	5289	0.243596659996	0.052726070002
10	5314	0.244795859996	0.052726070002
10	5339	0.245995059996	0.052726070002
10	5364	0.247194259996	0.052726070002
11	0	0	0
11	53	0.000082729998	1
11	54	0.000120329998	0
11	90	0.001358259996	1
11	92	0.002557459996	0
11	119	0.002596189994	1
11	120	0.002596189994	2
11	121	0.003756659996	1
11	148	0.003795389994	2
11	149	0.003795389994	3
11	150	0.004955859996	2
11	177	0.004994589994	3
11	178	0.004994589994	4
11	179	0.006155059996	3
11	206	0.006193789994	4
11	207	0.006193789994	5
11	208	0.007354259996	4
11	235	0.007392989994	5
11	236	0.007392989994	6
11	237	0.008553459996	5
11	264	0.008592189994	6
11	265	0.008592189994	7
11	266	0.009752659996	6
11	293	0.009791389994	7
11	294	0.009791389994	8
11	295	0.010951859996	7
11	322	0.010990589994	8
11	323	0.010990589994	9
11	324	0.012151059996	8
11	351	0.012189789994	9
11	352	0.012189789994	10
11	353	0.013350259996	9
11	380	0.013388989994	10
11	381	0.013388989994	11
11	382	0.014549459996	10
11	409	0.014588189994	11
11	410	0.014588189994	12
11	411	0.015748659996	11
11	438	0.015787389994	12
11	439	0.015787389994	13
11	440	0.016947859996	12
11	467	0.016986589994	13
11	468	0.016986589994	14
11	469	0.018147059996	13
11	496	0.018185789994	14
11	497	0.018185789994	15
11	498	0.019346259996	14
11	525	0.019384989994	15
11	526	0.019384989994	16
11	527	0.020545459996	15
11	554	0.020584189994	16
11	555	0.020584189994	17
11	556	0.021744659996	16
11	583	0.021783389994	17
11	584	0.021783389994	18
11	585	0.022943859996	17
11	612	0.022982589994	18
11	613	0.022982589994	19
11	614	0.024143059996	18
11	641	0.024181789994	19
11	642	0.024181789994	20
11	643	0.025342259996	19
11	670	0.025380989994	20
11	671	0.025380989994	21
11	672	0.026541459996	20
11	699	0.026580189994	21
11	700	0.026580189994	22
11	701	0.027740659996	21
11	728	0.027779389994	22
11	729	0.027779389994	23
11	730	0.028939859996	22
11	757	0.028978589994	23
11	758	0.028978589994	24
11	759	0.030139059996	23
11	786	0.030177789994	24
11	787	0.030177789994	25
11	788	0.031338259996	24
11	815	0.031376989994	25
11	816	0.031376989994	26
11	817	0.032537459996	25
11	844	0.032576189994	26
11	845	0.032576189994	27
11	846	0.033736659996	26
11	873	0.033775389994	27
11	874	0.033775389994	28
11	875	0.034935859996	27
11	902	0.034974589994	28
11	903	0.034974589994	29
11	904	0.036135059996	28
11	931	0.036173789994	29
11	932	0.036173789994	30
11	933	0.037334259996	29
11	960	0.037372989994	30
11	961	0.037372989994	31
11	962	0.038533459996	30
11	989	0.038572189994	31
11	990	0.038572189994	32
11	991	0.039732659996	31
11	1018	0.039771389994	32
11	1019	0.039771389994	33
11	1020	0.040931859996	32
11	1047	0.040970589994	33
11	1048	0.040970589994	34
11	1049	0.042131059996	33
11	1076	0.042169789994	34
11	1077	0.042169789994	35
11	1078	0.043330259996	34
11	1105	0.043368989994	35
11	1106	0.043368989994	36
11	1107	0.044529459996	35
11	1134	0.044568189994	36
11	1135	0.044568189994	37
11	1136	0.045728659996	36
11	1163	0.045767389994	37
11	1164	0.045767389994	38
11	1165	0.046927859996	37
11	1192	0.046966589994	38
11	1193	0.046966589994	39
11	1194	0.048127059996	38
11	1221	0.048165789994	39
11	1222	0.048165789994	40
11	1223	0.049326259996	39
11	1250	0.049364989994	40
11	1251	0.049364989994	41
11	1252	0.050525459996	40
11	1279	0.050564189994	41
11	1280	0.050564189994	42
11	1281	0.051724659996	41
11	1308	0.051763389994	42
11	1309	0.051763389994	43
11	1310	0.052923859996	42
11	1337	0.052962589994	43
11	1338	0.052962589994	44
11	1339	0.054123059996	43
11	1363	0.054161789994	44
11	1364	0.055322259996	43
11	1388	0.055360989994	44
11	1389	0.056521459996	43
11	1413	0.056560189994	44
11	1414	0.057720659996	43
11	1438	0.057759389994	44
11	1439	0.058919859996	43
11	1463	0.058958589994	44
11	1464	0.060119059996	43
11	1488	0.060157789994	44
11	1489	0.061318259996	43
11	1513	0.061356989994	44
11	1514	0.062517459996	43
11	1538	0.062556189994	44
11	1539	0.063716659996	43
11	1563	0.063755389994	44
11	1564	0.064915859996	43
11	1588	0.064954589994	44
11	1589	0.066115059996	43
11	1613	0.066153789994	44
11	1614	0.067314259996	43
11	1638	0.067352989994	44
11	1639	0.068513459996	43
11	1663	0.068552189994	44
11	1664	0.069712659996	43
11	1688	0.069751389994	44
11	1689	0.070911859996	43
11	1713	0.070950589994	44
11	1714	0.072111059996	43
11	1738	0.072149789994	44
11	1739	0.073310259996	43
11	1763	0.073348989994	44
11	1764	0.074509459996	43
11	1788	0.074548189994	44
11	1789	0.075708659996	43
11	1813	0.075747389994	44
11	1814	0.076907859996	43
11	1838	0.076946589994	44
11	1839	0.078107059996	43
11	1863	0.078145789994	44
11	1864	0.079306259996	43
11	1888	0.079344989994	44
11	1889	0.080505459996	43
11	1913	0.080544189994	44
11	1914	0.081704659996	43
11	1938	0.081743389994	44
11	1939	0.082903859996	43
11	1963	0.082942589994	44
11	1964	0.084103059996	43
11	1988	0.084141789994	44
11	1989	0.085302259996	43
11	2013	0.085340989994	44
11	2014	0.086501459996	43
11	2038	0.086540189994	44
11	2039	0.087700659996	43
11	2063	0.087739389994	44
11	2064	0.088899859996	43
11	2088	0.088938589994	44
11	2089	0.090099059996	43
11	2113	0.090137789994	44
11	2114	0.091298259996	43
11	2138	0.091336989994	44
11	2139	0.092497459996	43
11	2163	0.092536189994	44
11	2164	0.093696659996	43
11	2188	0.093735389994	44
11	2189	0.094895859996	43
11	2213	0.094934589994	44
11	2214	0.096095059996	43
11	2238	0.096133789994	44
11	2239	0.097294259996	43
11	2263	0.097332989994	44
11	2264	0.098493459996	43
11	2288	0.098532189994	44
11	2289	0.099692659996	43
11	2313	0.099731389994	44
11	2314	0.100891859996	43
11	2338	0.100930589994	44
11	2339	0.102091059996	43
11	2363	0.102129789994	44
11	2364	0.103290259996	43
11	2388	0.103328989994	44
11	2389	0.104489459996	43
11	2413	0.104528189994	44
11	2414	0.105688659996	43
11	2438	0.105727389994	44
11	2439	0.106887859996	43
11	2463	0.106926589994	44
11	2464	0.108087059996	43
11	2488	0.108125789994	44
11	2489	0.109286259996	43
11	2513	0.109324989994	44
11	2514	0.110485459996	43
11	2538	0.110524189994	44
11	2539	0.111684659996	43
11	2563	0.111723389994	44
11	2564	0.112883859996	43
11	2588	0.112922589994	44
11	2589	0.114083059996	43
11	2613	0.114121789994	44
11	2614	0.115282259996	43
11	2638	0.115320989994	44
11	2639	0.116481459996	43
11	2663	0.116520189994	44
11	2664	0.117680659996	43
11	2688	0.117719389994	44
11	2689	0.118879859996	43
11	2713	0.118918589994	44
11	2714	0.120079059996	43
11	2738	0.120117789994	44
11	2739	0.121278259996	43
11	2763	0.121316989994	44
11	2764	0.122477459996	43
11	2788	0.122516189994	44
11	2789	0.123676659996	43
11	2813	0.123715389994	44
11	2814	0.124875859996	43
11	2838	0.124914589994	44
11	2839	0.126075059996	43
11	2863	0.126113789994	44
11	2864	0.127274259996	43
11	2888	0.127312989994	44
11	2889	0.128473459996	43
11	2913	0.128512189994	44
11	2914	0.129672659996	43
11	2938	0.129711389994	44
11	2939	0.130871859996	43
11	2963	0.130910589994	44
11	2964	0.132071059996	43
11	2988	0.132109789994	44
11	2989	0.133270259996	43
11	3013	0.133308989994	44
11	3014	0.134469459996	43
11	3038	0.134508189994	44
11	3039	0.135668659996	43
11	3063	0.135707389994	44
11	3064	0.136867859996	43
11	3088	0.136906589994	44
11	3089	0.138067059996	43
11	3113	0.138105789994	44
11	3114	0.139266259996	43
11	3138	0.139304989994	44
11	3139	0.140465459996	43
11	3163	0.140504189994	44
11	3164	0.141664659996	43
11	3188	0.141703389994	44
11	3189	0.142863859996	43
11	3213	0.142902589994	44
11	3214	0.144063059996	43
11	3238	0.144101789994	44
11	3239	0.145262259996	43
11	3263	0.145300989994	44
11	3264	0.146461459996	43
11	3288	0.146500189994	44
11	3289	0.147660659996	43
11	3313	0.147699389994	44
11	3314	0.148859859996	43
11	3338	0.148898589994	44
11	3339	0.150059059996	43
11	3363	0.150097789994	44
11	3364	0.151258259996	43
11	3388	0.151296989994	44
11	3389	0.152457459996	43
11	3413	0.152496189994	44
11	3414	0.153656659996	43
11	3438	0.153695389994	44
11	3439	0.154855859996	43
11	3463	0.154894589994	44
11	3464	0.156055059996	43
11	3488	0.156093789994	44
11	3489	0.157254259996	43
11	3513	0.157292989994	44
11	3514	0.158453459996	43
11	3538	0.158492189994	44
11	3539	0.159652659996	43
11	3563	0.159691389994	44
11	3564	0.160851859996	43
11	3588	0.160890589994	44
11	3589	0.162051059996	43
11	3613	0.162089789994	44
11	3614	0.163250259996	43
11	3638	0.163288989994	44
11	3639	0.164449459996	43
11	3663	0.164488189994	44
11	3664	0.165648659996	43
11	3688	0.165687389994	44
11	3689	0.166847859996	43
11	3713	0.166886589994	44
11	3714	0.168047059996	43
11	3738	0.168085789994	44
11	3739	0.169246259996	43
11	3763	0.169284989994	44
11	3764	0.170445459996	43
11	3788	0.170484189994	44
11	3789	0.171644659996	43
11	3813	0.171683389994	44
11	3814	0.172843859996	43
11	3838	0.172882589994	44
11	3839	0.174043059996	43
11	3863	0.174081789994	44
11	3864	0.175242259996	43
11	3888	0.175280989994	44
11	3889	0.176441459996	43
11	3913	0.176480189994	44
11	3914	0.177640659996	43
11	3938	0.177679389994	44
11	3939	0.178839859996	43
11	3963	0.178878589994	44
11	3964	0.180039059996	43
11	3988	0.180077789994	44
11	3989	0.181238259996	43
11	4013	0.181276989994	44
11	4014	0.182437459996	43
11	4038	0.182476189994	44
11	4039	0.183636659996	43
11	4063	0.183675389994	44
11	4064	0.184835859996	43
11	4088	0.184874589994	44
11	4089	0.186035059996	43
11	4113	0.186073789994	44
11	4114	0.187234259996	43
11	4138	0.187272989994	44
11	4139	0.188433459996	43
11	4163	0.188472189994	44
11	4164	0.189632659996	43
11	4188	0.189671389994	44
11	4189	0.190831859996	43
11	4213	0.190870589994	44
11	4214	0.192031059996	43
11	4238	0.192069789994	44
11	4239	0.193230259996	43
11	4263	0.193268989994	44
11	4264	0.194429459996	43
11	4288	0.194468189994	44
11	4289	0.195628659996	43
11	4313	0.195667389994	44
11	4314	0.196827859996	43
11	4338	0.196866589994	44
11	4339	0.198027059996	43
11	4363	0.198065789994	44
11	4364	0.199226259996	43
11	4388	0.199264989994	44
11	4389	0.200425459996	43
11	4413	0.200464189994	44
11	4414	0.201624659996	43
11	4438	0.201663389994	44
11	4439	0.202823859996	43
11	4463	0.202862589994	44
11	4464	0.204023059996	43
11	4488	0.204061789994	44
11	4489	0.205222259996	43
11	4513	0.205260989994	44
11	4514	0.206421459996	43
11	4538	0.206460189994	44
11	4539	0.207620659996	43
11	4563	0.207659389994	44
11	4564	0.208819859996	43
11	4588	0.208858589994	44
11	4589	0.210019059996	43
11	4613	0.210057789994	44
11	4614	0.211218259996	43
11	4638	0.211256989994	44
11	4639	0.212417459996	43
11	4663	0.212456189994	44
11	4664	0.213616659996	43
11	4688	0.213655389994	44
11	4689	0.214815859996	43
11	4713	0.214854589994	44
11	4714	0.216015059996	43
11	4738	0.216053789994	44
11	4739	0.217214259996	43
11	4763	0.217252989994	44
11	4764	0.218413459996	43
11	4788	0.218452189994	44
11	4789	0.219612659996	43
11	4813	0.219651389994	44
11	4814	0.220811859996	43
11	4838	0.220850589994	44
11	4839	0.222011059996	43
11	4863	0.222049789994	44
11	4864	0.223210259996	43
11	4888	0.223248989994	44
11	4889	0.224409459996	43