version 2
run My_Scenario-0-20160629-13:51:39-11773
attr configname My_Scenario
attr datetime 20160629-13:51:39
attr experiment My_Scenario
attr inifile omnetpp.ini
attr iterationvars ""
attr iterationvars2 $repetition=0
attr measurement ""
attr network Scenario
attr processid 11773
attr repetition 0
attr replication #0
attr resultdir results
attr runnumber 0
attr seedset 0

vector 143  Scenario.open_flow_switch.tcp  tcpRcvQueueBytes  ETV
vector 130  Scenario.open_flow_switch.tcp  "advertised window"  ETV
vector 129  Scenario.open_flow_switch.tcp  "receive window"  ETV
vector 132  Scenario.open_flow_switch.tcp  "sent ack"  ETV
vector 73  Scenario.open_flow_switch.networkLayer.arp  sentReq:vector  ETV
attr title  "ARP request sent, vector"
vector 84  Scenario.open_flow_switch.eth[0].encap  encapPk:vector(packetBytes)  ETV
attr interpolationmode  none
attr source  encapPk
attr title  "packets encapsulated, vector(packetBytes)"
vector 80  Scenario.open_flow_switch.eth[0].mac  rxPkFromHL:vector(packetBytes)  ETV
attr interpolationmode  none
attr source  rxPkFromHL
attr title  "packet bytes from higher layer, vector(packetBytes)"
vector 75  Scenario.open_flow_switch.eth[0].mac  txPk:vector(packetBytes)  ETV
attr interpolationmode  none
attr source  txPk
attr title  "packets transmitted, vector(packetBytes)"
vector 93  Scenario.controller.eth[0].mac  rxPkOk:vector(packetBytes)  ETV
attr interpolationmode  none
attr source  rxPkOk
attr title  "packets received OK, vector(packetBytes)"
vector 94  Scenario.controller.eth[0].mac  passedUpPk:vector(packetBytes)  ETV
attr interpolationmode  none
attr source  packetSentToUpper
attr title  "packets passed to higher layer, vector(packetBytes)"
vector 102  Scenario.controller.eth[0].encap  decapPk:vector(packetBytes)  ETV
attr interpolationmode  none
attr source  decapPk
attr title  "packets decapsulated, vector(packetBytes)"
vector 88  Scenario.controller.networkLayer.arp  sentReply:vector  ETV
attr title  "ARP replies sent, vector"
vector 101  Scenario.controller.eth[0].encap  encapPk:vector(packetBytes)  ETV
attr interpolationmode  none
attr source  encapPk
attr title  "packets encapsulated, vector(packetBytes)"
vector 97  Scenario.controller.eth[0].mac  rxPkFromHL:vector(packetBytes)  ETV
attr interpolationmode  none
attr source  rxPkFromHL
attr title  "packet bytes from higher layer, vector(packetBytes)"
vector 92  Scenario.controller.eth[0].mac  txPk:vector(packetBytes)  ETV
attr interpolationmode  none
attr source  txPk
attr title  "packets transmitted, vector(packetBytes)"
vector 76  Scenario.open_flow_switch.eth[0].mac  rxPkOk:vector(packetBytes)  ETV
attr interpolationmode  none
attr source  rxPkOk
attr title  "packets received OK, vector(packetBytes)"
vector 77  Scenario.open_flow_switch.eth[0].mac  passedUpPk:vector(packetBytes)  ETV
attr interpolationmode  none
attr source  packetSentToUpper
attr title  "packets passed to higher layer, vector(packetBytes)"
vector 85  Scenario.open_flow_switch.eth[0].encap  decapPk:vector(packetBytes)  ETV
attr interpolationmode  none
attr source  decapPk
attr title  "packets decapsulated, vector(packetBytes)"
vector 109  Scenario.controller.tcp  "rcvd seq"  ETV
vector 110  Scenario.controller.tcp  "rcvd ack"  ETV
vector 106  Scenario.controller.tcp  "advertised window"  ETV
vector 104  Scenario.controller.tcp  "send window"  ETV
vector 119  Scenario.controller.tcp  tcpRcvQueueBytes  ETV
vector 105  Scenario.controller.tcp  "receive window"  ETV
vector 108  Scenario.controller.tcp  "sent ack"  ETV
vector 133  Scenario.open_flow_switch.tcp  "rcvd seq"  ETV
vector 134  Scenario.open_flow_switch.tcp  "rcvd ack"  ETV
vector 128  Scenario.open_flow_switch.tcp  "send window"  ETV
vector 111  Scenario.controller.tcp  "unacked bytes"  ETV
vector 107  Scenario.controller.tcp  "sent seq"  ETV
vector 136  Scenario.open_flow_switch.tcp  "rcvd dupAcks"  ETV
vector 131  Scenario.open_flow_switch.tcp  "sent seq"  ETV
vector 135  Scenario.open_flow_switch.tcp  "unacked bytes"  ETV
vector 123  Scenario.controller.tcp  "measured RTT"  ETV
vector 124  Scenario.controller.tcp  "smoothed RTT"  ETV
vector 125  Scenario.controller.tcp  RTTVAR  ETV
vector 126  Scenario.controller.tcp  RTO  ETV
vector 121  Scenario.controller.tcp  cwnd  ETV
vector 112  Scenario.controller.tcp  "rcvd dupAcks"  ETV
vector 147  Scenario.open_flow_switch.tcp  "measured RTT"  ETV
vector 148  Scenario.open_flow_switch.tcp  "smoothed RTT"  ETV
vector 149  Scenario.open_flow_switch.tcp  RTTVAR  ETV
vector 150  Scenario.open_flow_switch.tcp  RTO  ETV
vector 145  Scenario.open_flow_switch.tcp  cwnd  ETV
vector 1  Scenario.client.udpApp[0]  sentPk:vector(packetBytes)  ETV
attr interpolationmode  none
attr source  sentPk
attr title  "packets sent, vector(packetBytes)"
vector 3  Scenario.client.udp  sentPk:vector(packetBytes)  ETV
attr interpolationmode  none
attr source  sentPk
attr title  "packets sent, vector(packetBytes)"
vector 4  Scenario.client.udp  sentPk:vector(count)  ETV
attr interpolationmode  none
attr source  sentPk
attr title  "packets sent, vector(count)"
vector 9  Scenario.client.networkLayer.arp  sentReq:vector  ETV
attr title  "ARP request sent, vector"
vector 23  Scenario.client.eth[0].encap  encapPk:vector(packetBytes)  ETV
attr interpolationmode  none
attr source  encapPk
attr title  "packets encapsulated, vector(packetBytes)"
vector 19  Scenario.client.eth[0].mac  rxPkFromHL:vector(packetBytes)  ETV
attr interpolationmode  none
attr source  rxPkFromHL
attr title  "packet bytes from higher layer, vector(packetBytes)"
vector 14  Scenario.client.eth[0].mac  txPk:vector(packetBytes)  ETV
attr interpolationmode  none
attr source  txPk
attr title  "packets transmitted, vector(packetBytes)"
vector 52  Scenario.open_flow_switch.etherMAC[0]  rxPkOk:vector(packetBytes)  ETV
attr interpolationmode  none
attr source  rxPkOk
attr title  "packets received OK, vector(packetBytes)"
vector 53  Scenario.open_flow_switch.etherMAC[0]  passedUpPk:vector(packetBytes)  ETV
attr interpolationmode  none
attr source  packetSentToUpper
attr title  "packets passed to higher layer, vector(packetBytes)"
vector 67  Scenario.open_flow_switch.etherMAC[1]  rxPkFromHL:vector(packetBytes)  ETV
attr interpolationmode  none
attr source  rxPkFromHL
attr title  "packet bytes from higher layer, vector(packetBytes)"
vector 62  Scenario.open_flow_switch.etherMAC[1]  txPk:vector(packetBytes)  ETV
attr interpolationmode  none
attr source  txPk
attr title  "packets transmitted, vector(packetBytes)"
vector 40  Scenario.server.eth[0].mac  rxPkOk:vector(packetBytes)  ETV
attr interpolationmode  none
attr source  rxPkOk
attr title  "packets received OK, vector(packetBytes)"
vector 41  Scenario.server.eth[0].mac  passedUpPk:vector(packetBytes)  ETV
attr interpolationmode  none
attr source  packetSentToUpper
attr title  "packets passed to higher layer, vector(packetBytes)"
vector 49  Scenario.server.eth[0].encap  decapPk:vector(packetBytes)  ETV
attr interpolationmode  none
attr source  decapPk
attr title  "packets decapsulated, vector(packetBytes)"
vector 35  Scenario.server.networkLayer.arp  sentReply:vector  ETV
attr title  "ARP replies sent, vector"
vector 48  Scenario.server.eth[0].encap  encapPk:vector(packetBytes)  ETV
attr interpolationmode  none
attr source  encapPk
attr title  "packets encapsulated, vector(packetBytes)"
vector 44  Scenario.server.eth[0].mac  rxPkFromHL:vector(packetBytes)  ETV
attr interpolationmode  none
attr source  rxPkFromHL
attr title  "packet bytes from higher layer, vector(packetBytes)"
vector 39  Scenario.server.eth[0].mac  txPk:vector(packetBytes)  ETV
attr interpolationmode  none
attr source  txPk
attr title  "packets transmitted, vector(packetBytes)"
vector 63  Scenario.open_flow_switch.etherMAC[1]  rxPkOk:vector(packetBytes)  ETV
attr interpolationmode  none
attr source  rxPkOk
attr title  "packets received OK, vector(packetBytes)"
vector 64  Scenario.open_flow_switch.etherMAC[1]  passedUpPk:vector(packetBytes)  ETV
attr interpolationmode  none
attr source  packetSentToUpper
attr title  "packets passed to higher layer, vector(packetBytes)"
vector 56  Scenario.open_flow_switch.etherMAC[0]  rxPkFromHL:vector(packetBytes)  ETV
attr interpolationmode  none
attr source  rxPkFromHL
attr title  "packet bytes from higher layer, vector(packetBytes)"
vector 51  Scenario.open_flow_switch.etherMAC[0]  txPk:vector(packetBytes)  ETV
attr interpolationmode  none
attr source  txPk
attr title  "packets transmitted, vector(packetBytes)"
vector 15  Scenario.client.eth[0].mac  rxPkOk:vector(packetBytes)  ETV
attr interpolationmode  none
attr source  rxPkOk
attr title  "packets received OK, vector(packetBytes)"
vector 16  Scenario.client.eth[0].mac  passedUpPk:vector(packetBytes)  ETV
attr interpolationmode  none
attr source  packetSentToUpper
attr title  "packets passed to higher layer, vector(packetBytes)"
vector 24  Scenario.client.eth[0].encap  decapPk:vector(packetBytes)  ETV
attr interpolationmode  none
attr source  decapPk
attr title  "packets decapsulated, vector(packetBytes)"
vector 30  Scenario.server.udp  rcvdPk:vector(packetBytes)  ETV
attr interpolationmode  none
attr source  rcvdPk
attr title  "packets received, vector(packetBytes)"
vector 31  Scenario.server.udp  passedUpPk:vector(count)  ETV
attr interpolationmode  none
attr title  "packets passed up, vector(count)"
vector 26  Scenario.server.udpApp[0]  rcvdPk:vector(packetBytes)  ETV
attr interpolationmode  none
attr source  rcvdPk
attr title  "packets received, vector(packetBytes)"
vector 27  Scenario.server.udpApp[0]  rcvdPk:vector(count)  ETV
attr interpolationmode  none
attr source  rcvdPk
attr title  "packets received, vector(count)"
1	153	0.2	1250
1	566	0.4	1250
1	592	0.6	1250
1	618	0.8	1250
1	644	1	1250
1	670	1.2	1250
1	696	1.4	1250
1	722	1.6	1250
1	748	1.8	1250
1	774	2	1250
1	800	2.2	1250
1	826	2.4	1250
1	852	2.6	1250
1	878	2.8	1250
1	904	3	1250
1	930	3.2	1250
1	956	3.4	1250
1	982	3.6	1250
1	1008	3.8	1250
1	1034	4	1250
1	1060	4.2	1250
1	1086	4.4	1250
1	1112	4.6	1250
1	1138	4.8	1250
1	1164	5	1250
1	1190	5.2	1250
1	1216	5.4	1250
1	1242	5.6	1250
1	1268	5.8	1250
1	1294	6	1250
1	1320	6.2	1250
1	1346	6.4	1250
1	1372	6.6	1250
1	1398	6.8	1250
1	1424	7	1250
1	1450	7.2	1250
1	1476	7.4	1250
1	1502	7.6	1250
1	1528	7.8	1250
1	1554	8	1250
1	1580	8.2	1250
1	1606	8.4	1250
1	1632	8.6	1250
1	1658	8.8	1250
1	1684	9	1250
1	1710	9.2	1250
1	1736	9.4	1250
1	1762	9.6	1250
1	1788	9.8	1250
1	1814	10	1250
1	1840	10.2	1250
1	1866	10.4	1250
1	1892	10.6	1250
1	1918	10.8	1250
1	1944	11	1250
1	1970	11.2	1250
1	1996	11.4	1250
1	2022	11.6	1250
1	2048	11.8	1250
1	2074	12	1250
1	2100	12.2	1250
1	2126	12.4	1250
1	2152	12.6	1250
1	2178	12.8	1250
1	2204	13	1250
1	2230	13.2	1250
1	2256	13.4	1250
1	2282	13.6	1250
1	2308	13.8	1250
1	2334	14	1250
1	2360	14.2	1250
1	2386	14.4	1250
1	2412	14.6	1250
1	2438	14.8	1250
1	2465	15	1250
1	2552	15.2	1250
1	2578	15.4	1250
1	2604	15.6	1250
1	2630	15.8	1250
1	2656	16	1250
1	2682	16.2	1250
1	2708	16.4	1250
1	2734	16.6	1250
1	2760	16.8	1250
1	2786	17	1250
1	2812	17.2	1250
1	2838	17.4	1250
1	2864	17.6	1250
1	2890	17.8	1250
1	2916	18	1250
1	2942	18.2	1250
1	2968	18.4	1250
1	2994	18.6	1250
1	3020	18.8	1250
1	3046	19	1250
1	3072	19.2	1250
1	3098	19.4	1250
1	3124	19.6	1250
1	3150	19.8	1250
1	3176	20	1250
1	3202	20.2	1250
1	3228	20.4	1250
1	3254	20.6	1250
1	3280	20.8	1250
1	3306	21	1250
1	3332	21.2	1250
1	3358	21.4	1250
1	3384	21.6	1250
1	3410	21.8	1250
1	3436	22	1250
1	3462	22.2	1250
1	3488	22.4	1250
1	3514	22.6	1250
1	3540	22.8	1250
1	3566	23	1250
1	3592	23.2	1250
1	3618	23.4	1250
1	3644	23.6	1250
1	3670	23.8	1250
1	3696	24	1250
1	3722	24.2	1250
1	3748	24.4	1250
1	3774	24.6	1250
1	3800	24.8	1250
1	3827	25	1250
1	4471	25.2	1250
1	5017	25.4	1250
1	5563	25.6	1250
1	6109	25.8	1250
1	6655	26	1250
1	7201	26.2	1250
1	7747	26.4	1250
1	8293	26.6	1250
1	8839	26.8	1250
1	9385	27	1250
1	9931	27.2	1250
1	10477	27.4	1250
1	11023	27.6	1250
1	11569	27.8	1250
1	12115	28	1250
1	12661	28.2	1250
1	13207	28.4	1250
1	13753	28.6	1250
1	14299	28.8	1250
1	14845	29	1250
1	15391	29.2	1250
1	15937	29.4	1250
1	16483	29.6	1250
1	17029	29.8	1250
1	17576	30	1250
1	17993	30.2	1250
1	18308	30.4	1250
1	18623	30.6	1250
1	18938	30.8	1250
1	19253	31	1250
1	19568	31.2	1250
1	19883	31.4	1250
1	20198	31.6	1250
1	20513	31.8	1250
1	20828	32	1250
1	21143	32.2	1250
1	21458	32.4	1250
1	21773	32.6	1250
1	22088	32.8	1250
1	22403	33	1250
1	22718	33.2	1250
1	23033	33.4	1250
1	23348	33.6	1250
1	23663	33.8	1250
1	23978	34	1250
1	24293	34.2	1250
1	24608	34.4	1250
1	24923	34.6	1250
1	25238	34.8	1250
1	25553	35	1250
1	25868	35.2	1250
1	26183	35.4	1250
1	26498	35.6	1250
1	26813	35.8	1250
1	27128	36	1250
1	27443	36.2	1250
1	27758	36.4	1250
1	28073	36.6	1250
1	28388	36.8	1250
1	28703	37	1250
1	29018	37.2	1250
1	29333	37.4	1250
1	29648	37.6	1250
1	29963	37.8	1250
1	30278	38	1250
1	30593	38.2	1250
1	30908	38.4	1250
1	31223	38.6	1250
1	31538	38.8	1250
1	31853	39	1250
1	32168	39.2	1250
1	32483	39.4	1250
1	32798	39.6	1250
1	33113	39.8	1250
1	33428	40	1250
1	33743	40.2	1250
1	34058	40.4	1250
1	34373	40.6	1250
1	34688	40.8	1250
1	35003	41	1250
1	35318	41.2	1250
1	35633	41.4	1250
1	35948	41.6	1250
1	36263	41.8	1250
1	36578	42	1250
1	36893	42.2	1250
1	37208	42.4	1250
1	37523	42.6	1250
1	37838	42.8	1250
1	38153	43	1250
1	38468	43.2	1250
1	38783	43.4	1250
1	39098	43.6	1250
1	39413	43.8	1250
1	39728	44	1250
1	40043	44.2	1250
1	40358	44.4	1250
1	40673	44.6	1250
1	40988	44.8	1250
1	41304	45	1250
1	41680	45.2	1250
1	41995	45.4	1250
1	42310	45.6	1250
1	42625	45.8	1250
1	42940	46	1250
1	43255	46.2	1250
1	43570	46.4	1250
1	43885	46.6	1250
1	44200	46.8	1250
1	44515	47	1250
1	44830	47.2	1250
1	45145	47.4	1250
1	45460	47.6	1250
1	45775	47.8	1250
1	46090	48	1250
1	46405	48.2	1250
1	46720	48.4	1250
1	47035	48.6	1250
1	47350	48.8	1250
1	47665	49	1250
1	47980	49.2	1250
1	48295	49.4	1250
1	48610	49.6	1250
1	48925	49.8	1250
1	49240	50	1250
1	49555	50.2	1250
1	49870	50.4	1250
1	50185	50.6	1250
1	50500	50.8	1250
1	50815	51	1250
1	51130	51.2	1250
1	51445	51.4	1250
1	51760	51.6	1250
1	52075	51.8	1250
1	52390	52	1250
1	52705	52.2	1250
1	53020	52.4	1250
1	53335	52.6	1250
1	53650	52.8	1250
1	53965	53	1250
1	54280	53.2	1250
1	54595	53.4	1250
1	54910	53.6	1250
1	55225	53.8	1250
1	55540	54	1250
1	55855	54.2	1250
1	56170	54.4	1250
1	56485	54.6	1250
1	56800	54.8	1250
1	57115	55	1250
1	57430	55.2	1250
1	57745	55.4	1250
1	58060	55.6	1250
1	58375	55.8	1250
1	58690	56	1250
1	59005	56.2	1250
1	59320	56.4	1250
1	59635	56.6	1250
1	59950	56.8	1250
1	60265	57	1250
1	60580	57.2	1250
1	60895	57.4	1250
1	61210	57.6	1250
1	61525	57.8	1250
1	61840	58	1250
1	62155	58.2	1250
1	62470	58.4	1250
1	62785	58.6	1250
1	63100	58.8	1250
1	63415	59	1250
1	63730	59.2	1250
1	64045	59.4	1250
1	64360	59.6	1250
1	64675	59.8	1250
1	64991	60	1250
1	65367	60.2	1250
1	65746	60.4	1250
1	66061	60.6	1250
1	66376	60.8	1250
1	66691	61	1250
1	67006	61.2	1250
1	67321	61.4	1250
1	67636	61.6	1250
1	67951	61.8	1250
1	68266	62	1250
1	68581	62.2	1250
1	68896	62.4	1250
1	69211	62.6	1250
1	69526	62.8	1250
1	69841	63	1250
1	70156	63.2	1250
1	70471	63.4	1250
1	70786	63.6	1250
1	71101	63.8	1250
1	71416	64	1250
1	71731	64.2	1250
1	72046	64.4	1250
1	72361	64.6	1250
1	72676	64.8	1250
1	72991	65	1250
1	73306	65.2	1250
1	73621	65.4	1250
1	73936	65.6	1250
1	74251	65.8	1250
1	74566	66	1250
1	74881	66.2	1250
1	75196	66.4	1250
1	75511	66.6	1250
1	75826	66.8	1250
1	76141	67	1250
1	76456	67.2	1250
1	76771	67.4	1250
1	77086	67.6	1250
1	77401	67.8	1250
1	77716	68	1250
1	78031	68.2	1250
1	78346	68.4	1250
1	78661	68.6	1250
1	78976	68.8	1250
1	79291	69	1250
1	79606	69.2	1250
1	79921	69.4	1250
1	80236	69.6	1250
1	80551	69.8	1250
1	80866	70	1250
1	81181	70.2	1250
1	81496	70.4	1250
1	81811	70.6	1250
1	82126	70.8	1250
1	82441	71	1250
1	82756	71.2	1250
1	83071	71.4	1250
1	83386	71.6	1250
1	83701	71.8	1250
1	84016	72	1250
1	84331	72.2	1250
1	84646	72.4	1250
1	84961	72.6	1250
1	85276	72.8	1250
1	85591	73	1250
1	85906	73.2	1250
1	86221	73.4	1250
1	86536	73.6	1250
1	86851	73.8	1250
1	87166	74	1250
1	87481	74.2	1250
1	87796	74.4	1250
1	88111	74.6	1250
1	88426	74.8	1250
1	88742	75	1250
1	89118	75.2	1250
1	89433	75.4	1250
1	89748	75.6	1250
1	90063	75.8	1250
1	90378	76	1250
1	90693	76.2	1250
1	91008	76.4	1250
1	91323	76.6	1250
1	91638	76.8	1250
1	91953	77	1250
1	92268	77.2	1250
1	92583	77.4	1250
1	92898	77.6	1250
1	93213	77.8	1250
1	93528	78	1250
1	93843	78.2	1250
1	94158	78.4	1250
1	94473	78.6	1250
1	94788	78.8	1250
1	95103	79	1250
1	95418	79.2	1250
1	95733	79.4	1250
1	96048	79.6	1250
1	96363	79.8	1250
1	96678	80	1250
1	96993	80.2	1250
1	97308	80.4	1250
1	97623	80.6	1250
1	97938	80.8	1250
1	98253	81	1250
1	98568	81.2	1250
1	98883	81.4	1250
1	99198	81.6	1250
1	99513	81.8	1250
1	99828	82	1250
1	100143	82.2	1250
1	100458	82.4	1250
1	100773	82.6	1250
1	101088	82.8	1250
1	101403	83	1250
1	101718	83.2	1250
1	102033	83.4	1250
1	102348	83.6	1250
1	102663	83.8	1250
1	102978	84	1250
1	103293	84.2	1250
1	103608	84.4	1250
1	103923	84.6	1250
1	104238	84.8	1250
1	104553	85	1250
1	104900	85.2	1250
1	105215	85.4	1250
1	105530	85.6	1250
1	105845	85.8	1250
1	106160	86	1250
1	106475	86.2	1250
1	106790	86.4	1250
1	107105	86.6	1250
1	107420	86.8	1250
1	107735	87	1250
1	108050	87.2	1250
1	108365	87.4	1250
1	108680	87.6	1250
1	108995	87.8	1250
1	109310	88	1250
1	109625	88.2	1250
1	109940	88.4	1250
1	110255	88.6	1250
1	110570	88.8	1250
1	110885	89	1250
1	111200	89.2	1250
1	111515	89.4	1250
1	111830	89.6	1250
1	112145	89.8	1250
3	157	0.2	1258
3	568	0.4	1258
3	594	0.6	1258
3	620	0.8	1258
3	646	1	1258
3	672	1.2	1258
3	698	1.4	1258
3	724	1.6	1258
3	750	1.8	1258
3	776	2	1258
3	802	2.2	1258
3	828	2.4	1258
3	854	2.6	1258
3	880	2.8	1258
3	906	3	1258
3	932	3.2	1258
3	958	3.4	1258
3	984	3.6	1258
3	1010	3.8	1258
3	1036	4	1258
3	1062	4.2	1258
3	1088	4.4	1258
3	1114	4.6	1258
3	1140	4.8	1258
3	1166	5	1258
3	1192	5.2	1258
3	1218	5.4	1258
3	1244	5.6	1258
3	1270	5.8	1258
3	1296	6	1258
3	1322	6.2	1258
3	1348	6.4	1258
3	1374	6.6	1258
3	1400	6.8	1258
3	1426	7	1258
3	1452	7.2	1258
3	1478	7.4	1258
3	1504	7.6	1258
3	1530	7.8	1258
3	1556	8	1258
3	1582	8.2	1258
3	1608	8.4	1258
3	1634	8.6	1258
3	1660	8.8	1258
3	1686	9	1258
3	1712	9.2	1258
3	1738	9.4	1258
3	1764	9.6	1258
3	1790	9.8	1258
3	1816	10	1258
3	1842	10.2	1258
3	1868	10.4	1258
3	1894	10.6	1258
3	1920	10.8	1258
3	1946	11	1258
3	1972	11.2	1258
3	1998	11.4	1258
3	2024	11.6	1258
3	2050	11.8	1258
3	2076	12	1258
3	2102	12.2	1258
3	2128	12.4	1258
3	2154	12.6	1258
3	2180	12.8	1258
3	2206	13	1258
3	2232	13.2	1258
3	2258	13.4	1258
3	2284	13.6	1258
3	2310	13.8	1258
3	2336	14	1258
3	2362	14.2	1258
3	2388	14.4	1258
3	2414	14.6	1258
3	2440	14.8	1258
3	2469	15	1258
3	2554	15.2	1258
3	2580	15.4	1258
3	2606	15.6	1258
3	2632	15.8	1258
3	2658	16	1258
3	2684	16.2	1258
3	2710	16.4	1258
3	2736	16.6	1258
3	2762	16.8	1258
3	2788	17	1258
3	2814	17.2	1258
3	2840	17.4	1258
3	2866	17.6	1258
3	2892	17.8	1258
3	2918	18	1258
3	2944	18.2	1258
3	2970	18.4	1258
3	2996	18.6	1258
3	3022	18.8	1258
3	3048	19	1258
3	3074	19.2	1258
3	3100	19.4	1258
3	3126	19.6	1258
3	3152	19.8	1258
3	3178	20	1258
3	3204	20.2	1258
3	3230	20.4	1258
3	3256	20.6	1258
3	3282	20.8	1258
3	3308	21	1258
3	3334	21.2	1258
3	3360	21.4	1258
3	3386	21.6	1258
3	3412	21.8	1258
3	3438	22	1258
3	3464	22.2	1258
3	3490	22.4	1258
3	3516	22.6	1258
3	3542	22.8	1258
3	3568	23	1258
3	3594	23.2	1258
3	3620	23.4	1258
3	3646	23.6	1258
3	3672	23.8	1258
3	3698	24	1258
3	3724	24.2	1258
3	3750	24.4	1258
3	3776	24.6	1258
3	3802	24.8	1258
3	3830	25	8
3	3831	25	1258
3	3971	25.009999999999	8
3	3997	25.019999999999	8
3	4023	25.029999999999	8
3	4049	25.039999999999	8
3	4075	25.049999999999	8
3	4101	25.059999999999	8
3	4127	25.069999999999	8
3	4153	25.079999999999	8
3	4179	25.089999999998	8
3	4205	25.099999999998	8
3	4231	25.109999999998	8
3	4257	25.119999999998	8
3	4283	25.129999999998	8
3	4309	25.139999999998	8
3	4335	25.149999999998	8
3	4361	25.159999999998	8
3	4387	25.169999999997	8
3	4413	25.179999999997	8
3	4439	25.189999999997	8
3	4465	25.199999999997	8
3	4473	25.2	1258
3	4517	25.209999999997	8
3	4543	25.219999999997	8
3	4569	25.229999999997	8
3	4595	25.239999999997	8
3	4621	25.249999999996	8
3	4647	25.259999999996	8
3	4673	25.269999999996	8
3	4699	25.279999999996	8
3	4725	25.289999999996	8
3	4751	25.299999999996	8
3	4777	25.309999999996	8
3	4803	25.319999999996	8
3	4829	25.329999999995	8
3	4855	25.339999999995	8
3	4881	25.349999999995	8
3	4907	25.359999999995	8
3	4933	25.369999999995	8
3	4959	25.379999999995	8
3	4985	25.389999999995	8
3	5011	25.399999999995	8
3	5019	25.4	1258
3	5063	25.409999999994	8
3	5089	25.419999999994	8
3	5115	25.429999999994	8
3	5141	25.439999999994	8
3	5167	25.449999999994	8
3	5193	25.459999999994	8
3	5219	25.469999999994	8
3	5245	25.479999999994	8
3	5271	25.489999999993	8
3	5297	25.499999999993	8
3	5323	25.509999999993	8
3	5349	25.519999999993	8
3	5375	25.529999999993	8
3	5401	25.539999999993	8
3	5427	25.549999999993	8
3	5453	25.559999999993	8
3	5479	25.569999999992	8
3	5505	25.579999999992	8
3	5531	25.589999999992	8
3	5557	25.599999999992	8
3	5565	25.6	1258
3	5609	25.609999999992	8
3	5635	25.619999999992	8
3	5661	25.629999999992	8
3	5687	25.639999999992	8
3	5713	25.649999999991	8
3	5739	25.659999999991	8
3	5765	25.669999999991	8
3	5791	25.679999999991	8
3	5817	25.689999999991	8
3	5843	25.699999999991	8
3	5869	25.709999999991	8
3	5895	25.719999999991	8
3	5921	25.72999999999	8
3	5947	25.73999999999	8
3	5973	25.74999999999	8
3	5999	25.75999999999	8
3	6025	25.76999999999	8
3	6051	25.77999999999	8
3	6077	25.78999999999	8
3	6103	25.79999999999	8
3	6111	25.8	1258
3	6155	25.809999999989	8
3	6181	25.819999999989	8
3	6207	25.829999999989	8
3	6233	25.839999999989	8
3	6259	25.849999999989	8
3	6285	25.859999999989	8
3	6311	25.869999999989	8
3	6337	25.879999999989	8
3	6363	25.889999999988	8
3	6389	25.899999999988	8
3	6415	25.909999999988	8
3	6441	25.919999999988	8
3	6467	25.929999999988	8
3	6493	25.939999999988	8
3	6519	25.949999999988	8
3	6545	25.959999999988	8
3	6571	25.969999999987	8
3	6597	25.979999999987	8
3	6623	25.989999999987	8
3	6649	25.999999999987	8
3	6657	26	1258
3	6701	26.009999999987	8
3	6727	26.019999999987	8
3	6753	26.029999999987	8
3	6779	26.039999999987	8
3	6805	26.049999999986	8
3	6831	26.059999999986	8
3	6857	26.069999999986	8
3	6883	26.079999999986	8
3	6909	26.089999999986	8
3	6935	26.099999999986	8
3	6961	26.109999999986	8
3	6987	26.119999999986	8
3	7013	26.129999999985	8
3	7039	26.139999999985	8
3	7065	26.149999999985	8
3	7091	26.159999999985	8
3	7117	26.169999999985	8
3	7143	26.179999999985	8
3	7169	26.189999999985	8
3	7195	26.199999999985	8
3	7203	26.2	1258
3	7247	26.209999999984	8
3	7273	26.219999999984	8
3	7299	26.229999999984	8
3	7325	26.239999999984	8
3	7351	26.249999999984	8
3	7377	26.259999999984	8
3	7403	26.269999999984	8
3	7429	26.279999999984	8
3	7455	26.289999999983	8
3	7481	26.299999999983	8
3	7507	26.309999999983	8
3	7533	26.319999999983	8
3	7559	26.329999999983	8
3	7585	26.339999999983	8
3	7611	26.349999999983	8
3	7637	26.359999999983	8
3	7663	26.369999999982	8
3	7689	26.379999999982	8
3	7715	26.389999999982	8
3	7741	26.399999999982	8
3	7749	26.4	1258
3	7793	26.409999999982	8
3	7819	26.419999999982	8
3	7845	26.429999999982	8
3	7871	26.439999999982	8
3	7897	26.449999999982	8
3	7923	26.459999999982	8
3	7949	26.469999999982	8
3	7975	26.479999999982	8
3	8001	26.489999999982	8
3	8027	26.499999999982	8
3	8053	26.509999999982	8
3	8079	26.519999999981	8
3	8105	26.529999999981	8
3	8131	26.539999999981	8
3	8157	26.549999999981	8
3	8183	26.559999999981	8
3	8209	26.569999999981	8
3	8235	26.579999999981	8
3	8261	26.589999999981	8
3	8287	26.59999999998	8
3	8295	26.6	1258
3	8339	26.60999999998	8
3	8365	26.61999999998	8
3	8391	26.62999999998	8
3	8417	26.63999999998	8
3	8443	26.64999999998	8
3	8469	26.65999999998	8
3	8495	26.66999999998	8
3	8521	26.679999999979	8
3	8547	26.689999999979	8
3	8573	26.699999999979	8
3	8599	26.709999999979	8
3	8625	26.719999999979	8
3	8651	26.729999999979	8
3	8677	26.739999999979	8
3	8703	26.749999999979	8
3	8729	26.759999999978	8
3	8755	26.769999999978	8
3	8781	26.779999999978	8
3	8807	26.789999999978	8
3	8833	26.799999999978	8
3	8841	26.8	1258
3	8885	26.809999999978	8
3	8911	26.819999999978	8
3	8937	26.829999999978	8
3	8963	26.839999999977	8
3	8989	26.849999999977	8
3	9015	26.859999999977	8
3	9041	26.869999999977	8
3	9067	26.879999999977	8
3	9093	26.889999999977	8
3	9119	26.899999999977	8
3	9145	26.909999999977	8
3	9171	26.919999999976	8
3	9197	26.929999999976	8
3	9223	26.939999999976	8
3	9249	26.949999999976	8
3	9275	26.959999999976	8
3	9301	26.969999999976	8
3	9327	26.979999999976	8
3	9353	26.989999999976	8
3	9379	26.999999999975	8
3	9387	27	1258
3	9431	27.009999999975	8
3	9457	27.019999999975	8
3	9483	27.029999999975	8
3	9509	27.039999999975	8
3	9535	27.049999999975	8
3	9561	27.059999999975	8
3	9587	27.069999999975	8
3	9613	27.079999999974	8
3	9639	27.089999999974	8
3	9665	27.099999999974	8
3	9691	27.109999999974	8
3	9717	27.119999999974	8
3	9743	27.129999999974	8
3	9769	27.139999999974	8
3	9795	27.149999999974	8
3	9821	27.159999999973	8
3	9847	27.169999999973	8
3	9873	27.179999999973	8
3	9899	27.189999999973	8
3	9925	27.199999999973	8
3	9933	27.2	1258
3	9977	27.209999999973	8
3	10003	27.219999999973	8
3	10029	27.229999999973	8
3	10055	27.239999999972	8
3	10081	27.249999999972	8
3	10107	27.259999999972	8
3	10133	27.269999999972	8
3	10159	27.279999999972	8
3	10185	27.289999999972	8
3	10211	27.299999999972	8
3	10237	27.309999999972	8
3	10263	27.319999999971	8
3	10289	27.329999999971	8
3	10315	27.339999999971	8
3	10341	27.349999999971	8
3	10367	27.359999999971	8
3	10393	27.369999999971	8
3	10419	27.379999999971	8
3	10445	27.389999999971	8
3	10471	27.39999999997	8
3	10479	27.4	1258
3	10523	27.40999999997	8
3	10549	27.41999999997	8
3	10575	27.42999999997	8
3	10601	27.43999999997	8
3	10627	27.44999999997	8
3	10653	27.45999999997	8
3	10679	27.46999999997	8
3	10705	27.479999999969	8
3	10731	27.489999999969	8
3	10757	27.499999999969	8
3	10783	27.509999999969	8
3	10809	27.519999999969	8
3	10835	27.529999999969	8
3	10861	27.539999999969	8
3	10887	27.549999999969	8
3	10913	27.559999999968	8
3	10939	27.569999999968	8
3	10965	27.579999999968	8
3	10991	27.589999999968	8
3	11017	27.599999999968	8
3	11025	27.6	1258
3	11069	27.609999999968	8
3	11095	27.619999999968	8
3	11121	27.629999999968	8
3	11147	27.639999999967	8
3	11173	27.649999999967	8
3	11199	27.659999999967	8
3	11225	27.669999999967	8
3	11251	27.679999999967	8
3	11277	27.689999999967	8
3	11303	27.699999999967	8
3	11329	27.709999999967	8
3	11355	27.719999999966	8
3	11381	27.729999999966	8
3	11407	27.739999999966	8
3	11433	27.749999999966	8
3	11459	27.759999999966	8
3	11485	27.769999999966	8
3	11511	27.779999999966	8
3	11537	27.789999999966	8
3	11563	27.799999999965	8
3	11571	27.8	1258
3	11615	27.809999999965	8
3	11641	27.819999999965	8
3	11667	27.829999999965	8
3	11693	27.839999999965	8
3	11719	27.849999999965	8
3	11745	27.859999999965	8
3	11771	27.869999999965	8
3	11797	27.879999999964	8
3	11823	27.889999999964	8
3	11849	27.899999999964	8
3	11875	27.909999999964	8
3	11901	27.919999999964	8
3	11927	27.929999999964	8
3	11953	27.939999999964	8
3	11979	27.949999999964	8
3	12005	27.959999999964	8
3	12031	27.969999999964	8
3	12057	27.979999999964	8
3	12083	27.989999999964	8
3	12109	27.999999999964	8
3	12117	28	1258
3	12161	28.009999999964	8
3	12187	28.019999999964	8
3	12213	28.029999999963	8
3	12239	28.039999999963	8
3	12265	28.049999999963	8
3	12291	28.059999999963	8
3	12317	28.069999999963	8
3	12343	28.079999999963	8
3	12369	28.089999999963	8
3	12395	28.099999999963	8
3	12421	28.109999999962	8
3	12447	28.119999999962	8
3	12473	28.129999999962	8
3	12499	28.139999999962	8
3	12525	28.149999999962	8
3	12551	28.159999999962	8
3	12577	28.169999999962	8
3	12603	28.179999999962	8
3	12629	28.189999999961	8
3	12655	28.199999999961	8
3	12663	28.2	1258
3	12707	28.209999999961	8
3	12733	28.219999999961	8
3	12759	28.229999999961	8
3	12785	28.239999999961	8
3	12811	28.249999999961	8
3	12837	28.259999999961	8
3	12863	28.26999999996	8
3	12889	28.27999999996	8
3	12915	28.28999999996	8
3	12941	28.29999999996	8
3	12967	28.30999999996	8
3	12993	28.31999999996	8
3	13019	28.32999999996	8
3	13045	28.33999999996	8
3	13071	28.349999999959	8
3	13097	28.359999999959	8
3	13123	28.369999999959	8
3	13149	28.379999999959	8
3	13175	28.389999999959	8
3	13201	28.399999999959	8
3	13209	28.4	1258
3	13253	28.409999999959	8
3	13279	28.419999999959	8
3	13305	28.429999999958	8
3	13331	28.439999999958	8
3	13357	28.449999999958	8
3	13383	28.459999999958	8
3	13409	28.469999999958	8
3	13435	28.479999999958	8
3	13461	28.489999999958	8
3	13487	28.499999999958	8
3	13513	28.509999999957	8
3	13539	28.519999999957	8
3	13565	28.529999999957	8
3	13591	28.539999999957	8
3	13617	28.549999999957	8
3	13643	28.559999999957	8
3	13669	28.569999999957	8
3	13695	28.579999999957	8
3	13721	28.589999999956	8
3	13747	28.599999999956	8
3	13755	28.6	1258
3	13799	28.609999999956	8
3	13825	28.619999999956	8
3	13851	28.629999999956	8
3	13877	28.639999999956	8
3	13903	28.649999999956	8
3	13929	28.659999999956	8
3	13955	28.669999999955	8
3	13981	28.679999999955	8
3	14007	28.689999999955	8
3	14033	28.699999999955	8
3	14059	28.709999999955	8
3	14085	28.719999999955	8
3	14111	28.729999999955	8
3	14137	28.739999999955	8
3	14163	28.749999999954	8
3	14189	28.759999999954	8
3	14215	28.769999999954	8
3	14241	28.779999999954	8
3	14267	28.789999999954	8
3	14293	28.799999999954	8
3	14301	28.8	1258
3	14345	28.809999999954	8
3	14371	28.819999999954	8
3	14397	28.829999999953	8
3	14423	28.839999999953	8
3	14449	28.849999999953	8
3	14475	28.859999999953	8
3	14501	28.869999999953	8
3	14527	28.879999999953	8
3	14553	28.889999999953	8
3	14579	28.899999999953	8
3	14605	28.909999999952	8
3	14631	28.919999999952	8
3	14657	28.929999999952	8
3	14683	28.939999999952	8
3	14709	28.949999999952	8
3	14735	28.959999999952	8
3	14761	28.969999999952	8
3	14787	28.979999999952	8
3	14813	28.989999999951	8
3	14839	28.999999999951	8
3	14847	29	1258
3	14891	29.009999999951	8