version 2
run red-attack-0-20150520-00:20:08-6135
attr configname red-attack
attr datetime 20150520-00:20:08
attr experiment red-attack
attr inifile omnetpp.ini
attr iterationvars ""
attr iterationvars2 $repetition=0
attr measurement ""
attr network intersection
attr processid 6135
attr repetition 0
attr replication #0
attr resultdir results
attr runnumber 0
attr seedset 0

vector 18  intersection.tl1.ppp[0].queue  queueLength:vector  ETV
attr interpolationmode  sample-hold
attr title  "queue length, vector"
vector 19  intersection.tl1.ppp[0].ppp  txState:vector  ETV
attr interpolationmode  sample-hold
attr title  "tx state, vector"
vector 44  intersection.tl2.ppp[0].queue  queueLength:vector  ETV
attr interpolationmode  sample-hold
attr title  "queue length, vector"
vector 45  intersection.tl2.ppp[0].ppp  txState:vector  ETV
attr interpolationmode  sample-hold
attr title  "tx state, vector"
vector 70  intersection.tl3.ppp[0].queue  queueLength:vector  ETV
attr interpolationmode  sample-hold
attr title  "queue length, vector"
vector 71  intersection.tl3.ppp[0].ppp  txState:vector  ETV
attr interpolationmode  sample-hold
attr title  "tx state, vector"
vector 86  intersection.r1.ppp[0].queue  queueLength:vector  ETV
attr interpolationmode  sample-hold
attr title  "queue length, vector"
vector 87  intersection.r1.ppp[0].ppp  txState:vector  ETV
attr interpolationmode  sample-hold
attr title  "tx state, vector"
vector 97  intersection.r1.ppp[1].queue  queueLength:vector  ETV
attr interpolationmode  sample-hold
attr title  "queue length, vector"
vector 98  intersection.r1.ppp[1].ppp  txState:vector  ETV
attr interpolationmode  sample-hold
attr title  "tx state, vector"
vector 108  intersection.r1.ppp[2].queue  queueLength:vector  ETV
attr interpolationmode  sample-hold
attr title  "queue length, vector"
vector 109  intersection.r1.ppp[2].ppp  txState:vector  ETV
attr interpolationmode  sample-hold
attr title  "tx state, vector"
vector 119  intersection.r1.ppp[3].queue  queueLength:vector  ETV
attr interpolationmode  sample-hold
attr title  "queue length, vector"
vector 120  intersection.r1.ppp[3].ppp  txState:vector  ETV
attr interpolationmode  sample-hold
attr title  "tx state, vector"
vector 149  intersection.cn.ppp[0].queue  queueLength:vector  ETV
attr interpolationmode  sample-hold
attr title  "queue length, vector"
vector 150  intersection.cn.ppp[0].ppp  txState:vector  ETV
attr interpolationmode  sample-hold
attr title  "tx state, vector"
vector 3  intersection.tl1.senderApp  sentPk:vector(packetBytes)  ETV
attr interpolationmode  none
attr source  sentPk
attr title  "packets sent, vector(packetBytes)"
vector 29  intersection.tl2.senderApp  sentPk:vector(packetBytes)  ETV
attr interpolationmode  none
attr source  sentPk
attr title  "packets sent, vector(packetBytes)"
vector 55  intersection.tl3.senderApp  sentPk:vector(packetBytes)  ETV
attr interpolationmode  none
attr source  sentPk
attr title  "packets sent, vector(packetBytes)"
vector 5  intersection.tl1.udp  sentPk:vector(packetBytes)  ETV
attr interpolationmode  none
attr source  sentPk
attr title  "packets sent, vector(packetBytes)"
vector 31  intersection.tl2.udp  sentPk:vector(packetBytes)  ETV
attr interpolationmode  none
attr source  sentPk
attr title  "packets sent, vector(packetBytes)"
vector 57  intersection.tl3.udp  sentPk:vector(packetBytes)  ETV
attr interpolationmode  none
attr source  sentPk
attr title  "packets sent, vector(packetBytes)"
vector 15  intersection.tl1.ppp[0].queue  rcvdPk:vector(packetBytes)  ETV
attr interpolationmode  none
attr title  "received packets, vector(packetBytes)"
vector 17  intersection.tl1.ppp[0].queue  queueingTime:vector  ETV
attr interpolationmode  none
attr title  "queueing time, vector"
vector 41  intersection.tl2.ppp[0].queue  rcvdPk:vector(packetBytes)  ETV
attr interpolationmode  none
attr title  "received packets, vector(packetBytes)"
vector 43  intersection.tl2.ppp[0].queue  queueingTime:vector  ETV
attr interpolationmode  none
attr title  "queueing time, vector"
vector 67  intersection.tl3.ppp[0].queue  rcvdPk:vector(packetBytes)  ETV
attr interpolationmode  none
attr title  "received packets, vector(packetBytes)"
vector 69  intersection.tl3.ppp[0].queue  queueingTime:vector  ETV
attr interpolationmode  none
attr title  "queueing time, vector"
vector 24  intersection.tl1.ppp[0].ppp  rcvdPkFromHL:vector(packetBytes)  ETV
attr interpolationmode  none
attr source  packetReceivedFromUpper
attr title  "packets received from higher layer, vector(packetBytes)"
vector 20  intersection.tl1.ppp[0].ppp  txPk:vector(packetBytes)  ETV
attr interpolationmode  none
attr source  packetSentToLower
attr title  "packets transmitted, vector(packetBytes)"
vector 50  intersection.tl2.ppp[0].ppp  rcvdPkFromHL:vector(packetBytes)  ETV
attr interpolationmode  none
attr source  packetReceivedFromUpper
attr title  "packets received from higher layer, vector(packetBytes)"
vector 46  intersection.tl2.ppp[0].ppp  txPk:vector(packetBytes)  ETV
attr interpolationmode  none
attr source  packetSentToLower
attr title  "packets transmitted, vector(packetBytes)"
vector 76  intersection.tl3.ppp[0].ppp  rcvdPkFromHL:vector(packetBytes)  ETV
attr interpolationmode  none
attr source  packetReceivedFromUpper
attr title  "packets received from higher layer, vector(packetBytes)"
vector 72  intersection.tl3.ppp[0].ppp  txPk:vector(packetBytes)  ETV
attr interpolationmode  none
attr source  packetSentToLower
attr title  "packets transmitted, vector(packetBytes)"
vector 89  intersection.r1.ppp[0].ppp  rxPkOk:vector(packetBytes)  ETV
attr interpolationmode  none
attr source  rxPkOk
attr title  "packets received OK, vector(packetBytes)"
vector 93  intersection.r1.ppp[0].ppp  passedUpPk:vector(packetBytes)  ETV
attr interpolationmode  none
attr source  packetSentToUpper
attr title  "packets passed to higher layer, vector(packetBytes)"
vector 116  intersection.r1.ppp[3].queue  rcvdPk:vector(packetBytes)  ETV
attr interpolationmode  none
attr title  "received packets, vector(packetBytes)"
vector 118  intersection.r1.ppp[3].queue  queueingTime:vector  ETV
attr interpolationmode  none
attr title  "queueing time, vector"
vector 125  intersection.r1.ppp[3].ppp  rcvdPkFromHL:vector(packetBytes)  ETV
attr interpolationmode  none
attr source  packetReceivedFromUpper
attr title  "packets received from higher layer, vector(packetBytes)"
vector 121  intersection.r1.ppp[3].ppp  txPk:vector(packetBytes)  ETV
attr interpolationmode  none
attr source  packetSentToLower
attr title  "packets transmitted, vector(packetBytes)"
vector 111  intersection.r1.ppp[2].ppp  rxPkOk:vector(packetBytes)  ETV
attr interpolationmode  none
attr source  rxPkOk
attr title  "packets received OK, vector(packetBytes)"
vector 115  intersection.r1.ppp[2].ppp  passedUpPk:vector(packetBytes)  ETV
attr interpolationmode  none
attr source  packetSentToUpper
attr title  "packets passed to higher layer, vector(packetBytes)"
vector 100  intersection.r1.ppp[1].ppp  rxPkOk:vector(packetBytes)  ETV
attr interpolationmode  none
attr source  rxPkOk
attr title  "packets received OK, vector(packetBytes)"
vector 104  intersection.r1.ppp[1].ppp  passedUpPk:vector(packetBytes)  ETV
attr interpolationmode  none
attr source  packetSentToUpper
attr title  "packets passed to higher layer, vector(packetBytes)"
vector 152  intersection.cn.ppp[0].ppp  rxPkOk:vector(packetBytes)  ETV
attr interpolationmode  none
attr source  rxPkOk
attr title  "packets received OK, vector(packetBytes)"
vector 156  intersection.cn.ppp[0].ppp  passedUpPk:vector(packetBytes)  ETV
attr interpolationmode  none
attr source  packetSentToUpper
attr title  "packets passed to higher layer, vector(packetBytes)"
vector 137  intersection.cn.udp  rcvdPk:vector(packetBytes)  ETV
attr interpolationmode  none
attr source  rcvdPk
attr title  "packets received, vector(packetBytes)"
vector 138  intersection.cn.udp  passedUpPk:vector(count)  ETV
attr interpolationmode  none
attr title  "packets passed up, vector(count)"
vector 127  intersection.cn.controlNodeSink1  rcvdPk:vector(packetBytes)  ETV
attr interpolationmode  none
attr source  rcvdPk
attr title  "packets received, vector(packetBytes)"
vector 128  intersection.cn.controlNodeSink1  endToEndDelay:vector  ETV
attr interpolationmode  none
attr source  messageAge(rcvdPk)
attr title  "end-to-end delay, vector"
attr unit  s
vector 131  intersection.cn.controlNodeSink3  rcvdPk:vector(packetBytes)  ETV
attr interpolationmode  none
attr source  rcvdPk
attr title  "packets received, vector(packetBytes)"
vector 132  intersection.cn.controlNodeSink3  endToEndDelay:vector  ETV
attr interpolationmode  none
attr source  messageAge(rcvdPk)
attr title  "end-to-end delay, vector"
attr unit  s
vector 129  intersection.cn.controlNodeSink2  rcvdPk:vector(packetBytes)  ETV
attr interpolationmode  none
attr source  rcvdPk
attr title  "packets received, vector(packetBytes)"
vector 130  intersection.cn.controlNodeSink2  endToEndDelay:vector  ETV
attr interpolationmode  none
attr source  messageAge(rcvdPk)
attr title  "end-to-end delay, vector"
attr unit  s
3	20	0	0
3	124	0.2	0
3	196	0.4	0
5	56	0	8
5	130	0.2	8
5	202	0.4	8
15	70	0	28
15	142	0.2	28
15	214	0.4	28
17	70	0	0
17	142	0.2	0
17	214	0.4	0
18	0	0	0
19	0	0	0
19	73	0	1
19	76	0.000028	0
19	145	0.2	1
19	148	0.200028	0
19	217	0.4	1
19	220	0.400028	0
20	73	0	35
20	145	0.2	35
20	217	0.4	35
24	73	0	28
24	145	0.2	28
24	217	0.4	28
29	23	0	0
29	125	0.2	0
29	197	0.4	0
31	58	0	8
31	131	0.2	8
31	203	0.4	8
41	71	0	28
41	143	0.2	28
41	215	0.4	28
43	71	0	0
43	143	0.2	0
43	215	0.4	0
44	0	0	0
45	0	0	0
45	74	0	1
45	77	0.000028	0
45	146	0.2	1
45	149	0.200028	0
45	218	0.4	1
45	221	0.400028	0
46	74	0	35
46	146	0.2	35
46	218	0.4	35
50	74	0	28
50	146	0.2	28
50	218	0.4	28
55	26	0	0
55	126	0.2	0
55	198	0.4	0
57	60	0	8
57	132	0.2	8
57	204	0.4	8
67	72	0	28
67	144	0.2	28
67	216	0.4	28
69	72	0	0
69	144	0.2	0
69	216	0.4	0
70	0	0	0
71	0	0	0
71	75	0	1
71	78	0.000028	0
71	147	0.2	1
71	150	0.200028	0
71	219	0.4	1
71	222	0.400028	0
72	75	0	35
72	147	0.2	35
72	219	0.4	35
76	75	0	28
76	147	0.2	28
76	219	0.4	28
86	0	0	0
87	0	0	0
89	79	0.000125350491	35
89	151	0.200125350491	35
89	223	0.400125350491	35
93	79	0.000125350491	28
93	151	0.200125350491	28
93	223	0.400125350491	28
97	0	0	0
98	0	0	0
100	93	0.000220628533	35
100	165	0.200220628533	35
100	237	0.400220628533	35
104	93	0.000220628533	28
104	165	0.200220628533	28
104	237	0.400220628533	28
108	0	0	0
109	0	0	0
111	85	0.000140550237	35
111	157	0.200140550237	35
111	229	0.400140550237	35
115	85	0.000140550237	28
115	157	0.200140550237	28
115	229	0.400140550237	28
116	83	0.000125350491	28
116	89	0.000140550237	28
116	97	0.000220628533	28
116	155	0.200125350491	28
116	161	0.200140550237	28
116	169	0.200220628533	28
116	227	0.400125350491	28
116	233	0.400140550237	28
116	241	0.400220628533	28
118	83	0.000125350491	0
118	90	0.000153350491	1.2800254e-05
118	97	0.000220628533	0
118	155	0.200125350491	0
118	162	0.200153350491	1.2800254e-05
118	169	0.200220628533	0
118	227	0.400125350491	0
118	234	0.400153350491	1.2800254e-05
118	241	0.400220628533	0
119	0	0	0
119	89	0.000140550237	1
119	90	0.000153350491	0
119	161	0.200140550237	1
119	162	0.200153350491	0
119	233	0.400140550237	1
119	234	0.400153350491	0
120	0	0	0
120	84	0.000125350491	1
120	90	0.000153350491	0
120	91	0.000153350491	1
120	92	0.000181350491	0
120	98	0.000220628533	1
120	99	0.000248628533	0
120	156	0.200125350491	1
120	162	0.200153350491	0
120	163	0.200153350491	1
120	164	0.200181350491	0
120	170	0.200220628533	1
120	171	0.200248628533	0
120	228	0.400125350491	1
120	234	0.400153350491	0
120	235	0.400153350491	1
120	236	0.400181350491	0
120	242	0.400220628533	1
120	243	0.400248628533	0
121	84	0.000125350491	35
121	91	0.000153350491	35
121	98	0.000220628533	35
121	156	0.200125350491	35
121	163	0.200153350491	35
121	170	0.200220628533	35
121	228	0.400125350491	35
121	235	0.400153350491	35
121	242	0.400220628533	35
125	84	0.000125350491	28
125	91	0.000153350491	28
125	98	0.000220628533	28
125	156	0.200125350491	28
125	163	0.200153350491	28
125	170	0.200220628533	28
125	228	0.400125350491	28
125	235	0.400153350491	28
125	242	0.400220628533	28
127	106	0.000402166932	0
127	178	0.200402166932	0
127	250	0.400402166932	0
128	106	0.000402166932	0.000402166932
128	178	0.200402166932	0.000402166932
128	250	0.400402166932	0.000402166932
129	120	0.000497444974	0
129	192	0.200497444974	0
129	264	0.400497444974	0
130	120	0.000497444974	0.000497444974
130	192	0.200497444974	0.000497444974
130	264	0.400497444974	0.000497444974
131	113	0.000430166932	0
131	185	0.200430166932	0
131	257	0.400430166932	0
132	113	0.000430166932	0.000430166932
132	185	0.200430166932	0.000430166932
132	257	0.400430166932	0.000430166932
137	104	0.000402166932	8
137	111	0.000430166932	8
137	118	0.000497444974	8
137	176	0.200402166932	8
137	183	0.200430166932	8
137	190	0.200497444974	8
137	248	0.400402166932	8
137	255	0.400430166932	8
137	262	0.400497444974	8
138	104	0.000402166932	1
138	111	0.000430166932	2
138	118	0.000497444974	3
138	176	0.200402166932	4
138	183	0.200430166932	5
138	190	0.200497444974	6
138	248	0.400402166932	7
138	255	0.400430166932	8
138	262	0.400497444974	9
149	0	0	0
150	0	0	0
152	100	0.000402166932	35
152	107	0.000430166932	35
152	114	0.000497444974	35
152	172	0.200402166932	35
152	179	0.200430166932	35
152	186	0.200497444974	35
152	244	0.400402166932	35
152	251	0.400430166932	35
152	258	0.400497444974	35
156	100	0.000402166932	28
156	107	0.000430166932	28
156	114	0.000497444974	28
156	172	0.200402166932	28
156	179	0.200430166932	28
156	186	0.200497444974	28
156	244	0.400402166932	28
156	251	0.400430166932	28
156	258	0.400497444974	28
