version 2
run lier-every-3-0-20150529-19:38:59-9444
attr configname lier-every-3
attr datetime 20150529-19:38:59
attr experiment lier-every-3
attr inifile omnetpp.ini
attr iterationvars ""
attr iterationvars2 $repetition=0
attr measurement ""
attr network intersection
attr processid 9444
attr repetition 0
attr replication #0
attr resultdir results
attr runnumber 0
attr seedset 0

vector 18  intersection.tl1.ppp[0].queue  queueLength:vector  ETV
attr interpolationmode  sample-hold
attr title  "queue length, vector"
vector 19  intersection.tl1.ppp[0].ppp  txState:vector  ETV
attr interpolationmode  sample-hold
attr title  "tx state, vector"
vector 44  intersection.tl2.ppp[0].queue  queueLength:vector  ETV
attr interpolationmode  sample-hold
attr title  "queue length, vector"
vector 45  intersection.tl2.ppp[0].ppp  txState:vector  ETV
attr interpolationmode  sample-hold
attr title  "tx state, vector"
vector 70  intersection.tl3.ppp[0].queue  queueLength:vector  ETV
attr interpolationmode  sample-hold
attr title  "queue length, vector"
vector 71  intersection.tl3.ppp[0].ppp  txState:vector  ETV
attr interpolationmode  sample-hold
attr title  "tx state, vector"
vector 86  intersection.r1.ppp[0].queue  queueLength:vector  ETV
attr interpolationmode  sample-hold
attr title  "queue length, vector"
vector 87  intersection.r1.ppp[0].ppp  txState:vector  ETV
attr interpolationmode  sample-hold
attr title  "tx state, vector"
vector 97  intersection.r1.ppp[1].queue  queueLength:vector  ETV
attr interpolationmode  sample-hold
attr title  "queue length, vector"
vector 98  intersection.r1.ppp[1].ppp  txState:vector  ETV
attr interpolationmode  sample-hold
attr title  "tx state, vector"
vector 108  intersection.r1.ppp[2].queue  queueLength:vector  ETV
attr interpolationmode  sample-hold
attr title  "queue length, vector"
vector 109  intersection.r1.ppp[2].ppp  txState:vector  ETV
attr interpolationmode  sample-hold
attr title  "tx state, vector"
vector 119  intersection.r1.ppp[3].queue  queueLength:vector  ETV
attr interpolationmode  sample-hold
attr title  "queue length, vector"
vector 120  intersection.r1.ppp[3].ppp  txState:vector  ETV
attr interpolationmode  sample-hold
attr title  "tx state, vector"
vector 155  intersection.cn.ppp[0].queue  queueLength:vector  ETV
attr interpolationmode  sample-hold
attr title  "queue length, vector"
vector 156  intersection.cn.ppp[0].ppp  txState:vector  ETV
attr interpolationmode  sample-hold
attr title  "tx state, vector"
vector 3  intersection.tl1.senderApp  sentPk:vector(packetBytes)  ETV
attr interpolationmode  none
attr source  sentPk
attr title  "packets sent, vector(packetBytes)"
vector 29  intersection.tl2.senderApp  sentPk:vector(packetBytes)  ETV
attr interpolationmode  none
attr source  sentPk
attr title  "packets sent, vector(packetBytes)"
vector 55  intersection.tl3.senderApp  sentPk:vector(packetBytes)  ETV
attr interpolationmode  none
attr source  sentPk
attr title  "packets sent, vector(packetBytes)"
vector 134  intersection.cn.sender1  sentPk:vector(packetBytes)  ETV
attr interpolationmode  none
attr source  sentPk
attr title  "packets sent, vector(packetBytes)"
vector 137  intersection.cn.sender2  sentPk:vector(packetBytes)  ETV
attr interpolationmode  none
attr source  sentPk
attr title  "packets sent, vector(packetBytes)"
vector 140  intersection.cn.sender3  sentPk:vector(packetBytes)  ETV
attr interpolationmode  none
attr source  sentPk
attr title  "packets sent, vector(packetBytes)"
vector 5  intersection.tl1.udp  sentPk:vector(packetBytes)  ETV
attr interpolationmode  none
attr source  sentPk
attr title  "packets sent, vector(packetBytes)"
vector 31  intersection.tl2.udp  sentPk:vector(packetBytes)  ETV
attr interpolationmode  none
attr source  sentPk
attr title  "packets sent, vector(packetBytes)"
vector 57  intersection.tl3.udp  sentPk:vector(packetBytes)  ETV
attr interpolationmode  none
attr source  sentPk
attr title  "packets sent, vector(packetBytes)"
vector 142  intersection.cn.udp  sentPk:vector(packetBytes)  ETV
attr interpolationmode  none
attr source  sentPk
attr title  "packets sent, vector(packetBytes)"
vector 15  intersection.tl1.ppp[0].queue  rcvdPk:vector(packetBytes)  ETV
attr interpolationmode  none
attr title  "received packets, vector(packetBytes)"
vector 17  intersection.tl1.ppp[0].queue  queueingTime:vector  ETV
attr interpolationmode  none
attr title  "queueing time, vector"
vector 41  intersection.tl2.ppp[0].queue  rcvdPk:vector(packetBytes)  ETV
attr interpolationmode  none
attr title  "received packets, vector(packetBytes)"
vector 43  intersection.tl2.ppp[0].queue  queueingTime:vector  ETV
attr interpolationmode  none
attr title  "queueing time, vector"
vector 67  intersection.tl3.ppp[0].queue  rcvdPk:vector(packetBytes)  ETV
attr interpolationmode  none
attr title  "received packets, vector(packetBytes)"
vector 69  intersection.tl3.ppp[0].queue  queueingTime:vector  ETV
attr interpolationmode  none
attr title  "queueing time, vector"
vector 152  intersection.cn.ppp[0].queue  rcvdPk:vector(packetBytes)  ETV
attr interpolationmode  none
attr title  "received packets, vector(packetBytes)"
vector 154  intersection.cn.ppp[0].queue  queueingTime:vector  ETV
attr interpolationmode  none
attr title  "queueing time, vector"
vector 24  intersection.tl1.ppp[0].ppp  rcvdPkFromHL:vector(packetBytes)  ETV
attr interpolationmode  none
attr source  packetReceivedFromUpper
attr title  "packets received from higher layer, vector(packetBytes)"
vector 20  intersection.tl1.ppp[0].ppp  txPk:vector(packetBytes)  ETV
attr interpolationmode  none
attr source  packetSentToLower
attr title  "packets transmitted, vector(packetBytes)"
vector 50  intersection.tl2.ppp[0].ppp  rcvdPkFromHL:vector(packetBytes)  ETV
attr interpolationmode  none
attr source  packetReceivedFromUpper
attr title  "packets received from higher layer, vector(packetBytes)"
vector 46  intersection.tl2.ppp[0].ppp  txPk:vector(packetBytes)  ETV
attr interpolationmode  none
attr source  packetSentToLower
attr title  "packets transmitted, vector(packetBytes)"
vector 76  intersection.tl3.ppp[0].ppp  rcvdPkFromHL:vector(packetBytes)  ETV
attr interpolationmode  none
attr source  packetReceivedFromUpper
attr title  "packets received from higher layer, vector(packetBytes)"
vector 72  intersection.tl3.ppp[0].ppp  txPk:vector(packetBytes)  ETV
attr interpolationmode  none
attr source  packetSentToLower
attr title  "packets transmitted, vector(packetBytes)"
vector 161  intersection.cn.ppp[0].ppp  rcvdPkFromHL:vector(packetBytes)  ETV
attr interpolationmode  none
attr source  packetReceivedFromUpper
attr title  "packets received from higher layer, vector(packetBytes)"
vector 157  intersection.cn.ppp[0].ppp  txPk:vector(packetBytes)  ETV
attr interpolationmode  none
attr source  packetSentToLower
attr title  "packets transmitted, vector(packetBytes)"
vector 89  intersection.r1.ppp[0].ppp  rxPkOk:vector(packetBytes)  ETV
attr interpolationmode  none
attr source  rxPkOk
attr title  "packets received OK, vector(packetBytes)"
vector 93  intersection.r1.ppp[0].ppp  passedUpPk:vector(packetBytes)  ETV
attr interpolationmode  none
attr source  packetSentToUpper
attr title  "packets passed to higher layer, vector(packetBytes)"
vector 116  intersection.r1.ppp[3].queue  rcvdPk:vector(packetBytes)  ETV
attr interpolationmode  none
attr title  "received packets, vector(packetBytes)"
vector 118  intersection.r1.ppp[3].queue  queueingTime:vector  ETV
attr interpolationmode  none
attr title  "queueing time, vector"
vector 125  intersection.r1.ppp[3].ppp  rcvdPkFromHL:vector(packetBytes)  ETV
attr interpolationmode  none
attr source  packetReceivedFromUpper
attr title  "packets received from higher layer, vector(packetBytes)"
vector 121  intersection.r1.ppp[3].ppp  txPk:vector(packetBytes)  ETV
attr interpolationmode  none
attr source  packetSentToLower
attr title  "packets transmitted, vector(packetBytes)"
vector 111  intersection.r1.ppp[2].ppp  rxPkOk:vector(packetBytes)  ETV
attr interpolationmode  none
attr source  rxPkOk
attr title  "packets received OK, vector(packetBytes)"
vector 115  intersection.r1.ppp[2].ppp  passedUpPk:vector(packetBytes)  ETV
attr interpolationmode  none
attr source  packetSentToUpper
attr title  "packets passed to higher layer, vector(packetBytes)"
vector 122  intersection.r1.ppp[3].ppp  rxPkOk:vector(packetBytes)  ETV
attr interpolationmode  none
attr source  rxPkOk
attr title  "packets received OK, vector(packetBytes)"
vector 126  intersection.r1.ppp[3].ppp  passedUpPk:vector(packetBytes)  ETV
attr interpolationmode  none
attr source  packetSentToUpper
attr title  "packets passed to higher layer, vector(packetBytes)"
vector 83  intersection.r1.ppp[0].queue  rcvdPk:vector(packetBytes)  ETV
attr interpolationmode  none
attr title  "received packets, vector(packetBytes)"
vector 85  intersection.r1.ppp[0].queue  queueingTime:vector  ETV
attr interpolationmode  none
attr title  "queueing time, vector"
vector 92  intersection.r1.ppp[0].ppp  rcvdPkFromHL:vector(packetBytes)  ETV
attr interpolationmode  none
attr source  packetReceivedFromUpper
attr title  "packets received from higher layer, vector(packetBytes)"
vector 88  intersection.r1.ppp[0].ppp  txPk:vector(packetBytes)  ETV
attr interpolationmode  none
attr source  packetSentToLower
attr title  "packets transmitted, vector(packetBytes)"
vector 94  intersection.r1.ppp[1].queue  rcvdPk:vector(packetBytes)  ETV
attr interpolationmode  none
attr title  "received packets, vector(packetBytes)"
vector 96  intersection.r1.ppp[1].queue  queueingTime:vector  ETV
attr interpolationmode  none
attr title  "queueing time, vector"
vector 103  intersection.r1.ppp[1].ppp  rcvdPkFromHL:vector(packetBytes)  ETV
attr interpolationmode  none
attr source  packetReceivedFromUpper
attr title  "packets received from higher layer, vector(packetBytes)"
vector 99  intersection.r1.ppp[1].ppp  txPk:vector(packetBytes)  ETV
attr interpolationmode  none
attr source  packetSentToLower
attr title  "packets transmitted, vector(packetBytes)"
vector 105  intersection.r1.ppp[2].queue  rcvdPk:vector(packetBytes)  ETV
attr interpolationmode  none
attr title  "received packets, vector(packetBytes)"
vector 107  intersection.r1.ppp[2].queue  queueingTime:vector  ETV
attr interpolationmode  none
attr title  "queueing time, vector"
vector 114  intersection.r1.ppp[2].ppp  rcvdPkFromHL:vector(packetBytes)  ETV
attr interpolationmode  none
attr source  packetReceivedFromUpper
attr title  "packets received from higher layer, vector(packetBytes)"
vector 110  intersection.r1.ppp[2].ppp  txPk:vector(packetBytes)  ETV
attr interpolationmode  none
attr source  packetSentToLower
attr title  "packets transmitted, vector(packetBytes)"
vector 100  intersection.r1.ppp[1].ppp  rxPkOk:vector(packetBytes)  ETV
attr interpolationmode  none
attr source  rxPkOk
attr title  "packets received OK, vector(packetBytes)"
vector 104  intersection.r1.ppp[1].ppp  passedUpPk:vector(packetBytes)  ETV
attr interpolationmode  none
attr source  packetSentToUpper
attr title  "packets passed to higher layer, vector(packetBytes)"
vector 73  intersection.tl3.ppp[0].ppp  rxPkOk:vector(packetBytes)  ETV
attr interpolationmode  none
attr source  rxPkOk
attr title  "packets received OK, vector(packetBytes)"
vector 77  intersection.tl3.ppp[0].ppp  passedUpPk:vector(packetBytes)  ETV
attr interpolationmode  none
attr source  packetSentToUpper
attr title  "packets passed to higher layer, vector(packetBytes)"
vector 58  intersection.tl3.udp  rcvdPk:vector(packetBytes)  ETV
attr interpolationmode  none
attr source  rcvdPk
attr title  "packets received, vector(packetBytes)"
vector 59  intersection.tl3.udp  passedUpPk:vector(count)  ETV
attr interpolationmode  none
attr title  "packets passed up, vector(count)"
vector 52  intersection.tl3.sinkApp  rcvdPk:vector(packetBytes)  ETV
attr interpolationmode  none
attr source  rcvdPk
attr title  "packets received, vector(packetBytes)"
vector 53  intersection.tl3.sinkApp  endToEndDelay:vector  ETV
attr interpolationmode  none
attr source  messageAge(rcvdPk)
attr title  "end-to-end delay, vector"
attr unit  s
vector 21  intersection.tl1.ppp[0].ppp  rxPkOk:vector(packetBytes)  ETV
attr interpolationmode  none
attr source  rxPkOk
attr title  "packets received OK, vector(packetBytes)"
vector 25  intersection.tl1.ppp[0].ppp  passedUpPk:vector(packetBytes)  ETV
attr interpolationmode  none
attr source  packetSentToUpper
attr title  "packets passed to higher layer, vector(packetBytes)"
vector 6  intersection.tl1.udp  rcvdPk:vector(packetBytes)  ETV
attr interpolationmode  none
attr source  rcvdPk
attr title  "packets received, vector(packetBytes)"
vector 7  intersection.tl1.udp  passedUpPk:vector(count)  ETV
attr interpolationmode  none
attr title  "packets passed up, vector(count)"
vector 0  intersection.tl1.sinkApp  rcvdPk:vector(packetBytes)  ETV
attr interpolationmode  none
attr source  rcvdPk
attr title  "packets received, vector(packetBytes)"
vector 1  intersection.tl1.sinkApp  endToEndDelay:vector  ETV
attr interpolationmode  none
attr source  messageAge(rcvdPk)
attr title  "end-to-end delay, vector"
attr unit  s
vector 158  intersection.cn.ppp[0].ppp  rxPkOk:vector(packetBytes)  ETV
attr interpolationmode  none
attr source  rxPkOk
attr title  "packets received OK, vector(packetBytes)"
vector 162  intersection.cn.ppp[0].ppp  passedUpPk:vector(packetBytes)  ETV
attr interpolationmode  none
attr source  packetSentToUpper
attr title  "packets passed to higher layer, vector(packetBytes)"
vector 143  intersection.cn.udp  rcvdPk:vector(packetBytes)  ETV
attr interpolationmode  none
attr source  rcvdPk
attr title  "packets received, vector(packetBytes)"
vector 144  intersection.cn.udp  passedUpPk:vector(count)  ETV
attr interpolationmode  none
attr title  "packets passed up, vector(count)"
vector 127  intersection.cn.controlNodeSink1  rcvdPk:vector(packetBytes)  ETV
attr interpolationmode  none
attr source  rcvdPk
attr title  "packets received, vector(packetBytes)"
vector 128  intersection.cn.controlNodeSink1  endToEndDelay:vector  ETV
attr interpolationmode  none
attr source  messageAge(rcvdPk)
attr title  "end-to-end delay, vector"
attr unit  s
vector 47  intersection.tl2.ppp[0].ppp  rxPkOk:vector(packetBytes)  ETV
attr interpolationmode  none
attr source  rxPkOk
attr title  "packets received OK, vector(packetBytes)"
vector 51  intersection.tl2.ppp[0].ppp  passedUpPk:vector(packetBytes)  ETV
attr interpolationmode  none
attr source  packetSentToUpper
attr title  "packets passed to higher layer, vector(packetBytes)"
vector 32  intersection.tl2.udp  rcvdPk:vector(packetBytes)  ETV
attr interpolationmode  none
attr source  rcvdPk
attr title  "packets received, vector(packetBytes)"
vector 33  intersection.tl2.udp  passedUpPk:vector(count)  ETV
attr interpolationmode  none
attr title  "packets passed up, vector(count)"
vector 26  intersection.tl2.sinkApp  rcvdPk:vector(packetBytes)  ETV
attr interpolationmode  none
attr source  rcvdPk
attr title  "packets received, vector(packetBytes)"
vector 27  intersection.tl2.sinkApp  endToEndDelay:vector  ETV
attr interpolationmode  none
attr source  messageAge(rcvdPk)
attr title  "end-to-end delay, vector"
attr unit  s
vector 131  intersection.cn.controlNodeSink3  rcvdPk:vector(packetBytes)  ETV
attr interpolationmode  none
attr source  rcvdPk
attr title  "packets received, vector(packetBytes)"
vector 132  intersection.cn.controlNodeSink3  endToEndDelay:vector  ETV
attr interpolationmode  none
attr source  messageAge(rcvdPk)
attr title  "end-to-end delay, vector"
attr unit  s
vector 129  intersection.cn.controlNodeSink2  rcvdPk:vector(packetBytes)  ETV
attr interpolationmode  none
attr source  rcvdPk
attr title  "packets received, vector(packetBytes)"
vector 130  intersection.cn.controlNodeSink2  endToEndDelay:vector  ETV
attr interpolationmode  none
attr source  messageAge(rcvdPk)
attr title  "end-to-end delay, vector"
attr unit  s
0	167	0.000384454618	0
0	1121	2.500384454618	0
0	2105	5.000384454618	0
0	3059	7.500384454618	0
0	4043	10.000384454618	0
0	4997	12.500384454618	0
0	5981	15.000384454618	0
0	6935	17.500384454618	0
0	7919	20.000384454618	0
0	8873	22.500384454618	0
0	9857	25.000384454618	0
0	10811	27.500384454618	0
0	11796	30.000384454618	0
0	12750	32.500384454618	0
0	13734	35.000384454618	0
0	14688	37.500384454618	0
0	15672	40.000384454618	0
0	16626	42.500384454618	0
0	17610	45.000384454618	0
0	18564	47.500384454618	0
0	19548	50.000384454618	0
0	20502	52.500384454618	0
0	21486	55.000384454618	0
0	22440	57.500384454618	0
0	23424	60.000384454618	0
0	24378	62.500384454618	0
0	25362	65.000384454618	0
0	26316	67.500384454618	0
0	27300	70.000384454618	0
0	28254	72.500384454618	0
0	29238	75.000384454618	0
0	30192	77.500384454618	0
0	31176	80.000384454618	0
0	32130	82.500384454618	0
0	33114	85.000384454618	0
0	34068	87.500384454618	0
0	35052	90.000384454618	0
0	36006	92.500384454618	0
0	36990	95.000384454618	0
0	37944	97.500384454618	0
1	167	0.000384454618	0.000384454618
1	1121	2.500384454618	0.000384454618
1	2105	5.000384454618	0.000384454618
1	3059	7.500384454618	0.000384454618
1	4043	10.000384454618	0.000384454618
1	4997	12.500384454618	0.000384454618
1	5981	15.000384454618	0.000384454618
1	6935	17.500384454618	0.000384454618
1	7919	20.000384454618	0.000384454618
1	8873	22.500384454618	0.000384454618
1	9857	25.000384454618	0.000384454618
1	10811	27.500384454618	0.000384454618
1	11796	30.000384454618	0.000384454618
1	12750	32.500384454618	0.000384454618
1	13734	35.000384454618	0.000384454618
1	14688	37.500384454618	0.000384454618
1	15672	40.000384454618	0.000384454618
1	16626	42.500384454618	0.000384454618
1	17610	45.000384454618	0.000384454618
1	18564	47.500384454618	0.000384454618
1	19548	50.000384454618	0.000384454618
1	20502	52.500384454618	0.000384454618
1	21486	55.000384454618	0.000384454618
1	22440	57.500384454618	0.000384454618
1	23424	60.000384454618	0.000384454618
1	24378	62.500384454618	0.000384454618
1	25362	65.000384454618	0.000384454618
1	26316	67.500384454618	0.000384454618
1	27300	70.000384454618	0.000384454618
1	28254	72.500384454618	0.000384454618
1	29238	75.000384454618	0.000384454618
1	30192	77.500384454618	0.000384454618
1	31176	80.000384454618	0.000384454618
1	32130	82.500384454618	0.000384454618
1	33114	85.000384454618	0.000384454618
1	34068	87.500384454618	0.000384454618
1	35052	90.000384454618	0.000384454618
1	36006	92.500384454618	0.000384454618
1	36990	95.000384454618	0.000384454618
1	37944	97.500384454618	0.000384454618
3	20	0	0
3	199	0.2	0
3	271	0.4	0
3	343	0.6	0
3	415	0.8	0
3	487	1	0
3	559	1.2	0
3	631	1.4	0
3	703	1.6	0
3	775	1.8	0
3	847	2	0
3	919	2.2	0
3	991	2.4	0
3	1132	2.6	0
3	1204	2.8	0
3	1276	3	0
3	1348	3.2	0
3	1420	3.4	0
3	1492	3.6	0
3	1564	3.8	0
3	1636	4	0
3	1708	4.2	0
3	1780	4.4	0
3	1852	4.6	0
3	1924	4.8	0
3	1999	5	0
3	2137	5.2	0
3	2209	5.4	0
3	2281	5.6	0
3	2353	5.8	0
3	2425	6	0
3	2497	6.2	0
3	2569	6.4	0
3	2641	6.6	0
3	2713	6.8	0
3	2785	7	0
3	2857	7.2	0
3	2929	7.4	0
3	3070	7.6	0
3	3142	7.8	0
3	3214	8	0
3	3286	8.2	0
3	3358	8.4	0
3	3430	8.6	0
3	3502	8.8	0
3	3574	9	0
3	3646	9.2	0
3	3718	9.4	0
3	3790	9.6	0
3	3862	9.8	0
3	3937	10	0
3	4075	10.2	0
3	4147	10.4	0
3	4219	10.6	0
3	4291	10.8	0
3	4363	11	0
3	4435	11.2	0
3	4507	11.4	0
3	4579	11.6	0
3	4651	11.8	0
3	4723	12	0
3	4795	12.2	0
3	4867	12.4	0
3	5008	12.6	0
3	5080	12.8	0
3	5152	13	0
3	5224	13.2	0
3	5296	13.4	0
3	5368	13.6	0
3	5440	13.8	0
3	5512	14	0
3	5584	14.2	0
3	5656	14.4	0
3	5728	14.6	0
3	5800	14.8	0
3	5875	15	0
3	6013	15.2	0
3	6085	15.4	0
3	6157	15.6	0
3	6229	15.8	0
3	6301	16	0
3	6373	16.2	0
3	6445	16.4	0
3	6517	16.6	0
3	6589	16.8	0
3	6661	17	0
3	6733	17.2	0
3	6805	17.4	0
3	6946	17.6	0
3	7018	17.8	0
3	7090	18	0
3	7162	18.2	0
3	7234	18.4	0
3	7306	18.6	0
3	7378	18.8	0
3	7450	19	0
3	7522	19.2	0
3	7594	19.4	0
3	7666	19.6	0
3	7738	19.8	0
3	7813	20	0
3	7951	20.2	0
3	8023	20.4	0
3	8095	20.6	0
3	8167	20.8	0
3	8239	21	0
3	8311	21.2	0
3	8383	21.4	0
3	8455	21.6	0
3	8527	21.8	0
3	8599	22	0
3	8671	22.2	0
3	8743	22.4	0
3	8884	22.6	0
3	8956	22.8	0
3	9028	23	0
3	9100	23.2	0
3	9172	23.4	0
3	9244	23.6	0
3	9316	23.8	0
3	9388	24	0
3	9460	24.2	0
3	9532	24.4	0
3	9604	24.6	0
3	9676	24.8	0
3	9751	25	0
3	9889	25.2	0
3	9961	25.4	0
3	10033	25.6	0
3	10105	25.8	0
3	10177	26	0
3	10249	26.2	0
3	10321	26.4	0
3	10393	26.6	0
3	10465	26.8	0
3	10537	27	0
3	10609	27.2	0
3	10681	27.4	0
3	10822	27.6	0
3	10894	27.8	0
3	10966	28	0
3	11038	28.2	0
3	11110	28.4	0
3	11182	28.6	0
3	11254	28.8	0
3	11326	29	0
3	11398	29.2	0
3	11470	29.4	0
3	11542	29.6	0
3	11614	29.8	0
3	11690	30	0
3	11828	30.2	0
3	11900	30.4	0
3	11972	30.6	0
3	12044	30.8	0
3	12116	31	0
3	12188	31.2	0
3	12260	31.4	0
3	12332	31.6	0
3	12404	31.8	0
3	12476	32	0
3	12548	32.2	0
3	12620	32.4	0
3	12761	32.6	0
3	12833	32.8	0
3	12905	33	0
3	12977	33.2	0
3	13049	33.4	0
3	13121	33.6	0
3	13193	33.8	0
3	13265	34	0
3	13337	34.2	0
3	13409	34.4	0
3	13481	34.6	0
3	13553	34.8	0
3	13628	35	0
3	13766	35.2	0
3	13838	35.4	0
3	13910	35.6	0
3	13982	35.8	0
3	14054	36	0
3	14126	36.2	0
3	14198	36.4	0
3	14270	36.6	0
3	14342	36.8	0
3	14414	37	0
3	14486	37.2	0
3	14558	37.4	0
3	14699	37.6	0
3	14771	37.8	0
3	14843	38	0
3	14915	38.2	0
3	14987	38.4	0
3	15059	38.6	0
3	15131	38.8	0
3	15203	39	0
3	15275	39.2	0
3	15347	39.4	0
3	15419	39.6	0
3	15491	39.8	0
3	15566	40	0
3	15704	40.2	0
3	15776	40.4	0
3	15848	40.6	0
3	15920	40.8	0
3	15992	41	0
3	16064	41.2	0
3	16136	41.4	0
3	16208	41.6	0
3	16280	41.8	0
3	16352	42	0
3	16424	42.2	0
3	16496	42.4	0
3	16637	42.6	0
3	16709	42.8	0
3	16781	43	0
3	16853	43.2	0
3	16925	43.4	0
3	16997	43.6	0
3	17069	43.8	0
3	17141	44	0
3	17213	44.2	0
3	17285	44.4	0
3	17357	44.6	0
3	17429	44.8	0
3	17504	45	0
3	17642	45.2	0
3	17714	45.4	0
3	17786	45.6	0
3	17858	45.8	0
3	17930	46	0
3	18002	46.2	0
3	18074	46.4	0
3	18146	46.6	0
3	18218	46.8	0
3	18290	47	0
3	18362	47.2	0
3	18434	47.4	0
3	18575	47.6	0
3	18647	47.8	0
3	18719	48	0
3	18791	48.2	0
3	18863	48.4	0
3	18935	48.6	0
3	19007	48.8	0
3	19079	49	0
3	19151	49.2	0
3	19223	49.4	0
3	19295	49.6	0
3	19367	49.8	0
3	19442	50	0
3	19580	50.2	0
3	19652	50.4	0
3	19724	50.6	0
3	19796	50.8	0
3	19868	51	0
3	19940	51.2	0
3	20012	51.4	0
3	20084	51.6	0
3	20156	51.8	0
3	20228	52	0
3	20300	52.2	0
3	20372	52.4	0
3	20513	52.6	0
3	20585	52.8	0
3	20657	53	0
3	20729	53.2	0
3	20801	53.4	0
3	20873	53.6	0
3	20945	53.8	0
3	21017	54	0
3	21089	54.2	0
3	21161	54.4	0
3	21233	54.6	0
3	21305	54.8	0
3	21380	55	0
3	21518	55.2	0
3	21590	55.4	0
3	21662	55.6	0
3	21734	55.8	0
3	21806	56	0
3	21878	56.2	0
3	21950	56.4	0
3	22022	56.6	0
3	22094	56.8	0
3	22166	57	0
3	22238	57.2	0
3	22310	57.4	0
3	22451	57.6	0
3	22523	57.8	0
3	22595	58	0
3	22667	58.2	0
3	22739	58.4	0
3	22811	58.6	0
3	22883	58.8	0
3	22955	59	0
3	23027	59.2	0
3	23099	59.4	0
3	23171	59.6	0
3	23243	59.8	0
3	23318	60	0
3	23456	60.2	0
3	23528	60.4	0
3	23600	60.6	0
3	23672	60.8	0
3	23744	61	0
3	23816	61.2	0
3	23888	61.4	0
3	23960	61.6	0
3	24032	61.8	0
3	24104	62	0
3	24176	62.2	0
3	24248	62.4	0
3	24389	62.6	0
3	24461	62.8	0
3	24533	63	0
3	24605	63.2	0
3	24677	63.4	0
3	24749	63.6	0
3	24821	63.8	0
3	24893	64	0
3	24965	64.2	0
3	25037	64.4	0
3	25109	64.6	0
3	25181	64.8	0
3	25256	65	0
3	25394	65.2	0
3	25466	65.4	0
3	25538	65.6	0
3	25610	65.8	0
3	25682	66	0
3	25754	66.2	0
3	25826	66.4	0
3	25898	66.6	0
3	25970	66.8	0
3	26042	67	0
3	26114	67.2	0
3	26186	67.4	0
3	26327	67.6	0
3	26399	67.8	0
3	26471	68	0
3	26543	68.2	0
3	26615	68.4	0
3	26687	68.6	0
3	26759	68.8	0
3	26831	69	0
3	26903	69.2	0
3	26975	69.4	0
3	27047	69.6	0
3	27119	69.8	0
3	27194	70	0
3	27332	70.2	0
3	27404	70.4	0
3	27476	70.6	0
3	27548	70.8	0
3	27620	71	0
3	27692	71.2	0
3	27764	71.4	0
3	27836	71.6	0
3	27908	71.8	0
3	27980	72	0
3	28052	72.2	0
3	28124	72.4	0
3	28265	72.6	0
3	28337	72.8	0
3	28409	73	0
3	28481	73.2	0
3	28553	73.4	0
3	28625	73.6	0
3	28697	73.8	0
3	28769	74	0
3	28841	74.2	0
3	28913	74.4	0
3	28985	74.6	0
3	29057	74.8	0
3	29132	75	0
3	29270	75.2	0
3	29342	75.4	0
3	29414	75.6	0
3	29486	75.8	0
3	29558	76	0
3	29630	76.2	0
3	29702	76.4	0
3	29774	76.6	0
3	29846	76.8	0
3	29918	77	0
3	29990	77.2	0
3	30062	77.4	0
3	30203	77.6	0
3	30275	77.8	0
3	30347	78	0
3	30419	78.2	0
3	30491	78.4	0
3	30563	78.6	0
3	30635	78.8	0
3	30707	79	0
3	30779	79.2	0
3	30851	79.4	0
3	30923	79.6	0
3	30995	79.8	0
3	31070	80	0
3	31208	80.2	0
3	31280	80.4	0
3	31352	80.6	0
3	31424	80.8	0
3	31496	81	0
3	31568	81.2	0
3	31640	81.4	0
3	31712	81.6	0
3	31784	81.8	0
3	31856	82	0
3	31928	82.2	0
3	32000	82.4	0
3	32141	82.6	0
3	32213	82.8	0
3	32285	83	0
3	32357	83.2	0
3	32429	83.4	0
3	32501	83.6	0
3	32573	83.8	0
3	32645	84	0
3	32717	84.2	0
3	32789	84.4	0
3	32861	84.6	0
3	32933	84.8	0
3	33008	85	0
3	33146	85.2	0
3	33218	85.4	0
3	33290	85.6	0
3	33362	85.8	0
3	33434	86	0
3	33506	86.2	0
3	33578	86.4	0
3	33650	86.6	0
3	33722	86.8	0
3	33794	87	0
3	33866	87.2	0
3	33938	87.4	0
3	34079	87.6	0
3	34151	87.8	0
3	34223	88	0
3	34295	88.2	0
3	34367	88.4	0
3	34439	88.6	0
3	34511	88.8	0
3	34583	89	0
3	34655	89.2	0
3	34727	89.4	0
3	34799	89.6	0
3	34871	89.8	0
3	34946	90	0
3	35084	90.2	0
3	35156	90.4	0
3	35228	90.6	0
3	35300	90.8	0
3	35372	91	0
3	35444	91.2	0
3	35516	91.4	0
3	35588	91.6	0
3	35660	91.8	0
3	35732	92	0
3	35804	92.2	0
3	35876	92.4	0
3	36017	92.6	0
3	36089	92.8	0
3	36161	93	0
3	36233	93.2	0
3	36305	93.4	0
3	36377	93.6	0
3	36449	93.8	0
3	36521	94	0
3	36593	94.2	0
3	36665	94.4	0
3	36737	94.6	0
3	36809	94.8	0
3	36884	95	0
3	37022	95.2	0
3	37094	95.4	0
3	37166	95.6	0
3	37238	95.8	0
3	37310	96	0
3	37382	96.2	0
3	37454	96.4	0
3	37526	96.6	0
3	37598	96.8	0
3	37670	97	0
3	37742	97.2	0
3	37814	97.4	0
3	37955	97.6	0
3	38027	97.8	0
3	38099	98	0
3	38171	98.2	0
3	38243	98.4	0
3	38315	98.6	0
3	38387	98.8	0
3	38459	99	0
3	38531	99.2	0
3	38603	99.4	0
3	38675	99.6	0
3	38747	99.8	0
5	65	0	8
5	205	0.2	8
5	277	0.4	8
5	349	0.6	8
5	421	0.8	8
5	493	1	8
5	565	1.2	8
5	637	1.4	8
5	709	1.6	8
5	781	1.8	8
5	853	2	8
5	925	2.2	8
5	997	2.4	8
5	1138	2.6	8
5	1210	2.8	8
5	1282	3	8
5	1354	3.2	8
5	1426	3.4	8
5	1498	3.6	8
5	1570	3.8	8
5	1642	4	8
5	1714	4.2	8
5	1786	4.4	8
5	1858	4.6	8
5	1930	4.8	8
5	2011	5	8
5	2143	5.2	8
5	2215	5.4	8
5	2287	5.6	8
5	2359	5.8	8
5	2431	6	8
5	2503	6.2	8
5	2575	6.4	8
5	2647	6.6	8
5	2719	6.8	8
5	2791	7	8
5	2863	7.2	8
5	2935	7.4	8
5	3076	7.6	8
5	3148	7.8	8
5	3220	8	8
5	3292	8.2	8
5	3364	8.4	8
5	3436	8.6	8
5	3508	8.8	8
5	3580	9	8
5	3652	9.2	8
5	3724	9.4	8
5	3796	9.6	8
5	3868	9.8	8
5	3949	10	8
5	4081	10.2	8
5	4153	10.4	8
5	4225	10.6	8
5	4297	10.8	8
5	4369	11	8
5	4441	11.2	8
5	4513	11.4	8
5	4585	11.6	8
5	4657	11.8	8
5	4729	12	8
5	4801	12.2	8
5	4873	12.4	8
5	5014	12.6	8
5	5086	12.8	8
5	5158	13	8
5	5230	13.2	8
5	5302	13.4	8
5	5374	13.6	8
5	5446	13.8	8
5	5518	14	8
5	5590	14.2	8
5	5662	14.4	8
5	5734	14.6	8
5	5806	14.8	8
5	5887	15	8
5	6019	15.2	8
5	6091	15.4	8
5	6163	15.6	8
5	6235	15.8	8
5	6307	16	8
5	6379	16.2	8
5	6451	16.4	8
5	6523	16.6	8
5	6595	16.8	8
5	6667	17	8
5	6739	17.2	8
5	6811	17.4	8
5	6952	17.6	8
5	7024	17.8	8
5	7096	18	8
5	7168	18.2	8
5	7240	18.4	8
5	7312	18.6	8
5	7384	18.8	8
5	7456	19	8
5	7528	19.2	8
5	7600	19.4	8
5	7672	19.6	8
5	7744	19.8	8
5	7825	20	8
5	7957	20.2	8
5	8029	20.4	8
5	8101	20.6	8
5	8173	20.8	8
5	8245	21	8
5	8317	21.2	8
5	8389	21.4	8
5	8461	21.6	8
5	8533	21.8	8
5	8605	22	8
5	8677	22.2	8
5	8749	22.4	8
5	8890	22.6	8
5	8962	22.8	8
5	9034	23	8
5	9106	23.2	8
5	9178	23.4	8
5	9250	23.6	8
5	9322	23.8	8
5	9394	24	8
5	9466	24.2	8
5	9538	24.4	8
5	9610	24.6	8
5	9682	24.8	8
5	9763	25	8
5	9895	25.2	8
5	9967	25.4	8
5	10039	25.6	8
5	10111	25.8	8
5	10183	26	8
5	10255	26.2	8
5	10327	26.4	8
5	10399	26.6	8
5	10471	26.8	8
5	10543	27	8
5	10615	27.2	8
5	10687	27.4	8
5	10828	27.6	8
5	10900	27.8	8
5	10972	28	8
5	11044	28.2	8
5	11116	28.4	8
5	11188	28.6	8
5	11260	28.8	8
5	11332	29	8
5	11404	29.2	8
5	11476	29.4	8
5	11548	29.6	8
5	11620	29.8	8
5	11702	30	8
5	11834	30.2	8
5	11906	30.4	8
5	11978	30.6	8
5	12050	30.8	8
5	12122	31	8
5	12194	31.2	8
5	12266	31.4	8
5	12338	31.6	8
5	12410	31.8	8
5	12482	32	8
5	12554	32.2	8
5	12626	32.4	8
5	12767	32.6	8
5	12839	32.8	8
5	12911	33	8
5	12983	33.2	8
5	13055	33.4	8
5	13127	33.6	8
5	13199	33.8	8
5	13271	34	8
5	13343	34.2	8
5	13415	34.4	8
5	13487	34.6	8
5	13559	34.8	8
5	13640	35	8
5	13772	35.2	8
5	13844	35.4	8
5	13916	35.6	8
5	13988	35.8	8
5	14060	36	8
5	14132	36.2	8
5	14204	36.4	8
5	14276	36.6	8
5	14348	36.8	8
5	14420	37	8
5	14492	37.2	8
5	14564	37.4	8
5	14705	37.6	8
5	14777	37.8	8
5	14849	38	8
5	14921	38.2	8
5	14993	38.4	8
5	15065	38.6	8
5	15137	38.8	8
5	15209	39	8
5	15281	39.2	8
5	15353	39.4	8
5	15425	39.6	8
5	15497	39.8	8
5	15578	40	8
5	15710	40.2	8
5	15782	40.4	8
5	15854	40.6	8
5	15926	40.8	8
5	15998	41	8
5	16070	41.2	8
5	16142	41.4	8
5	16214	41.6	8
5	16286	41.8	8
5	16358	42	8
5	16430	42.2	8
5	16502	42.4	8
5	16643	42.6	8
5	16715	42.8	8
5	16787	43	8
5	16859	43.2	8
5	16931	43.4	8
5	17003	43.6	8
5	17075	43.8	8
5	17147	44	8
5	17219	44.2	8
5	17291	44.4	8
5	17363	44.6	8
5	17435	44.8	8
5	17516	45	8
5	17648	45.2	8
5	17720	45.4	8
5	17792	45.6	8
5	17864	45.8	8
5	17936	46	8
5	18008	46.2	8
5	18080	46.4	8
5	18152	46.6	8
5	18224	46.8	8
5	18296	47	8
5	18368	47.2	8
5	18440	47.4	8
5	18581	47.6	8
5	18653	47.8	8
5	18725	48	8
5	18797	48.2	8
5	18869	48.4	8
5	18941	48.6	8
5	19013	48.8	8
5	19085	49	8
5	19157	49.2	8
5	19229	49.4	8
5	19301	49.6	8
5	19373	49.8	8
5	19454	50	8
5	19586	50.2	8
5	19658	50.4	8
5	19730	50.6	8
5	19802	50.8	8
5	19874	51	8
5	19946	51.2	8
5	20018	51.4	8
5	20090	51.6	8
5	20162	51.8	8
5	20234	52	8
5	20306	52.2	8
5	20378	52.4	8
5	20519	52.6	8
5	20591	52.8	8
5	20663	53	8
5	20735	53.2	8
5	20807	53.4	8
5	20879	53.6	8
5	20951	53.8	8
5	21023	54	8
5	21095	54.2	8
5	21167	54.4	8
5	21239	54.6	8
5	21311	54.8	8
5	21392	55	8
5	21524	55.2	8
5	21596	55.4	8
5	21668	55.6	8
5	21740	55.8	8
5	21812	56	8
5	21884	56.2	8
5	21956	56.4	8
5	22028	56.6	8
5	22100	56.8	8
5	22172	57	8
5	22244	57.2	8
5	22316	57.4	8
5	22457	57.6	8
5	22529	57.8	8
5	22601	58	8
5	22673	58.2	8
5	22745	58.4	8
5	22817	58.6	8
5	22889	58.8	8
5	22961	59	8
5	23033	59.2	8
5	23105	59.4	8
5	23177	59.6	8
5	23249	59.8	8
5	23330	60	8
5	23462	60.2	8
5	23534	60.4	8
5	23606	60.6	8
5	23678	60.8	8
5	23750	61	8
5	23822	61.2	8
5	23894	61.4	8
5	23966	61.6	8
5	24038	61.8	8