version 2
run traffic-jam-0-20150527-20:08:12-12739
attr configname traffic-jam
attr datetime 20150527-20:08:12
attr experiment traffic-jam
attr inifile omnetpp.ini
attr iterationvars ""
attr iterationvars2 $repetition=0
attr measurement ""
attr network intersection
attr processid 12739
attr repetition 0
attr replication #0
attr resultdir results
attr runnumber 0
attr seedset 0

vector 18  intersection.tl1.ppp[0].queue  queueLength:vector  ETV
attr interpolationmode  sample-hold
attr title  "queue length, vector"
vector 19  intersection.tl1.ppp[0].ppp  txState:vector  ETV
attr interpolationmode  sample-hold
attr title  "tx state, vector"
vector 44  intersection.tl2.ppp[0].queue  queueLength:vector  ETV
attr interpolationmode  sample-hold
attr title  "queue length, vector"
vector 45  intersection.tl2.ppp[0].ppp  txState:vector  ETV
attr interpolationmode  sample-hold
attr title  "tx state, vector"
vector 70  intersection.tl3.ppp[0].queue  queueLength:vector  ETV
attr interpolationmode  sample-hold
attr title  "queue length, vector"
vector 71  intersection.tl3.ppp[0].ppp  txState:vector  ETV
attr interpolationmode  sample-hold
attr title  "tx state, vector"
vector 86  intersection.r1.ppp[0].queue  queueLength:vector  ETV
attr interpolationmode  sample-hold
attr title  "queue length, vector"
vector 87  intersection.r1.ppp[0].ppp  txState:vector  ETV
attr interpolationmode  sample-hold
attr title  "tx state, vector"
vector 97  intersection.r1.ppp[1].queue  queueLength:vector  ETV
attr interpolationmode  sample-hold
attr title  "queue length, vector"
vector 98  intersection.r1.ppp[1].ppp  txState:vector  ETV
attr interpolationmode  sample-hold
attr title  "tx state, vector"
vector 108  intersection.r1.ppp[2].queue  queueLength:vector  ETV
attr interpolationmode  sample-hold
attr title  "queue length, vector"
vector 109  intersection.r1.ppp[2].ppp  txState:vector  ETV
attr interpolationmode  sample-hold
attr title  "tx state, vector"
vector 119  intersection.r1.ppp[3].queue  queueLength:vector  ETV
attr interpolationmode  sample-hold
attr title  "queue length, vector"
vector 120  intersection.r1.ppp[3].ppp  txState:vector  ETV
attr interpolationmode  sample-hold
attr title  "tx state, vector"
vector 155  intersection.cn.ppp[0].queue  queueLength:vector  ETV
attr interpolationmode  sample-hold
attr title  "queue length, vector"
vector 156  intersection.cn.ppp[0].ppp  txState:vector  ETV
attr interpolationmode  sample-hold
attr title  "tx state, vector"
vector 3  intersection.tl1.senderApp  sentPk:vector(packetBytes)  ETV
attr interpolationmode  none
attr source  sentPk
attr title  "packets sent, vector(packetBytes)"
vector 29  intersection.tl2.senderApp  sentPk:vector(packetBytes)  ETV
attr interpolationmode  none
attr source  sentPk
attr title  "packets sent, vector(packetBytes)"
vector 55  intersection.tl3.senderApp  sentPk:vector(packetBytes)  ETV
attr interpolationmode  none
attr source  sentPk
attr title  "packets sent, vector(packetBytes)"
vector 134  intersection.cn.sender1  sentPk:vector(packetBytes)  ETV
attr interpolationmode  none
attr source  sentPk
attr title  "packets sent, vector(packetBytes)"
vector 137  intersection.cn.sender2  sentPk:vector(packetBytes)  ETV
attr interpolationmode  none
attr source  sentPk
attr title  "packets sent, vector(packetBytes)"
vector 140  intersection.cn.sender3  sentPk:vector(packetBytes)  ETV
attr interpolationmode  none
attr source  sentPk
attr title  "packets sent, vector(packetBytes)"
vector 5  intersection.tl1.udp  sentPk:vector(packetBytes)  ETV
attr interpolationmode  none
attr source  sentPk
attr title  "packets sent, vector(packetBytes)"
vector 31  intersection.tl2.udp  sentPk:vector(packetBytes)  ETV
attr interpolationmode  none
attr source  sentPk
attr title  "packets sent, vector(packetBytes)"
vector 57  intersection.tl3.udp  sentPk:vector(packetBytes)  ETV
attr interpolationmode  none
attr source  sentPk
attr title  "packets sent, vector(packetBytes)"
vector 142  intersection.cn.udp  sentPk:vector(packetBytes)  ETV
attr interpolationmode  none
attr source  sentPk
attr title  "packets sent, vector(packetBytes)"
vector 15  intersection.tl1.ppp[0].queue  rcvdPk:vector(packetBytes)  ETV
attr interpolationmode  none
attr title  "received packets, vector(packetBytes)"
vector 17  intersection.tl1.ppp[0].queue  queueingTime:vector  ETV
attr interpolationmode  none
attr title  "queueing time, vector"
vector 41  intersection.tl2.ppp[0].queue  rcvdPk:vector(packetBytes)  ETV
attr interpolationmode  none
attr title  "received packets, vector(packetBytes)"
vector 43  intersection.tl2.ppp[0].queue  queueingTime:vector  ETV
attr interpolationmode  none
attr title  "queueing time, vector"
vector 67  intersection.tl3.ppp[0].queue  rcvdPk:vector(packetBytes)  ETV
attr interpolationmode  none
attr title  "received packets, vector(packetBytes)"
vector 69  intersection.tl3.ppp[0].queue  queueingTime:vector  ETV
attr interpolationmode  none
attr title  "queueing time, vector"
vector 152  intersection.cn.ppp[0].queue  rcvdPk:vector(packetBytes)  ETV
attr interpolationmode  none
attr title  "received packets, vector(packetBytes)"
vector 154  intersection.cn.ppp[0].queue  queueingTime:vector  ETV
attr interpolationmode  none
attr title  "queueing time, vector"
vector 24  intersection.tl1.ppp[0].ppp  rcvdPkFromHL:vector(packetBytes)  ETV
attr interpolationmode  none
attr source  packetReceivedFromUpper
attr title  "packets received from higher layer, vector(packetBytes)"
vector 20  intersection.tl1.ppp[0].ppp  txPk:vector(packetBytes)  ETV
attr interpolationmode  none
attr source  packetSentToLower
attr title  "packets transmitted, vector(packetBytes)"
vector 50  intersection.tl2.ppp[0].ppp  rcvdPkFromHL:vector(packetBytes)  ETV
attr interpolationmode  none
attr source  packetReceivedFromUpper
attr title  "packets received from higher layer, vector(packetBytes)"
vector 46  intersection.tl2.ppp[0].ppp  txPk:vector(packetBytes)  ETV
attr interpolationmode  none
attr source  packetSentToLower
attr title  "packets transmitted, vector(packetBytes)"
vector 76  intersection.tl3.ppp[0].ppp  rcvdPkFromHL:vector(packetBytes)  ETV
attr interpolationmode  none
attr source  packetReceivedFromUpper
attr title  "packets received from higher layer, vector(packetBytes)"
vector 72  intersection.tl3.ppp[0].ppp  txPk:vector(packetBytes)  ETV
attr interpolationmode  none
attr source  packetSentToLower
attr title  "packets transmitted, vector(packetBytes)"
vector 161  intersection.cn.ppp[0].ppp  rcvdPkFromHL:vector(packetBytes)  ETV
attr interpolationmode  none
attr source  packetReceivedFromUpper
attr title  "packets received from higher layer, vector(packetBytes)"
vector 157  intersection.cn.ppp[0].ppp  txPk:vector(packetBytes)  ETV
attr interpolationmode  none
attr source  packetSentToLower
attr title  "packets transmitted, vector(packetBytes)"
vector 89  intersection.r1.ppp[0].ppp  rxPkOk:vector(packetBytes)  ETV
attr interpolationmode  none
attr source  rxPkOk
attr title  "packets received OK, vector(packetBytes)"
vector 93  intersection.r1.ppp[0].ppp  passedUpPk:vector(packetBytes)  ETV
attr interpolationmode  none
attr source  packetSentToUpper
attr title  "packets passed to higher layer, vector(packetBytes)"
vector 116  intersection.r1.ppp[3].queue  rcvdPk:vector(packetBytes)  ETV
attr interpolationmode  none
attr title  "received packets, vector(packetBytes)"
vector 118  intersection.r1.ppp[3].queue  queueingTime:vector  ETV
attr interpolationmode  none
attr title  "queueing time, vector"
vector 125  intersection.r1.ppp[3].ppp  rcvdPkFromHL:vector(packetBytes)  ETV
attr interpolationmode  none
attr source  packetReceivedFromUpper
attr title  "packets received from higher layer, vector(packetBytes)"
vector 121  intersection.r1.ppp[3].ppp  txPk:vector(packetBytes)  ETV
attr interpolationmode  none
attr source  packetSentToLower
attr title  "packets transmitted, vector(packetBytes)"
vector 111  intersection.r1.ppp[2].ppp  rxPkOk:vector(packetBytes)  ETV
attr interpolationmode  none
attr source  rxPkOk
attr title  "packets received OK, vector(packetBytes)"
vector 115  intersection.r1.ppp[2].ppp  passedUpPk:vector(packetBytes)  ETV
attr interpolationmode  none
attr source  packetSentToUpper
attr title  "packets passed to higher layer, vector(packetBytes)"
vector 122  intersection.r1.ppp[3].ppp  rxPkOk:vector(packetBytes)  ETV
attr interpolationmode  none
attr source  rxPkOk
attr title  "packets received OK, vector(packetBytes)"
vector 126  intersection.r1.ppp[3].ppp  passedUpPk:vector(packetBytes)  ETV
attr interpolationmode  none
attr source  packetSentToUpper
attr title  "packets passed to higher layer, vector(packetBytes)"
vector 83  intersection.r1.ppp[0].queue  rcvdPk:vector(packetBytes)  ETV
attr interpolationmode  none
attr title  "received packets, vector(packetBytes)"
vector 85  intersection.r1.ppp[0].queue  queueingTime:vector  ETV
attr interpolationmode  none
attr title  "queueing time, vector"
vector 92  intersection.r1.ppp[0].ppp  rcvdPkFromHL:vector(packetBytes)  ETV
attr interpolationmode  none
attr source  packetReceivedFromUpper
attr title  "packets received from higher layer, vector(packetBytes)"
vector 88  intersection.r1.ppp[0].ppp  txPk:vector(packetBytes)  ETV
attr interpolationmode  none
attr source  packetSentToLower
attr title  "packets transmitted, vector(packetBytes)"
vector 94  intersection.r1.ppp[1].queue  rcvdPk:vector(packetBytes)  ETV
attr interpolationmode  none
attr title  "received packets, vector(packetBytes)"
vector 96  intersection.r1.ppp[1].queue  queueingTime:vector  ETV
attr interpolationmode  none
attr title  "queueing time, vector"
vector 103  intersection.r1.ppp[1].ppp  rcvdPkFromHL:vector(packetBytes)  ETV
attr interpolationmode  none
attr source  packetReceivedFromUpper
attr title  "packets received from higher layer, vector(packetBytes)"
vector 99  intersection.r1.ppp[1].ppp  txPk:vector(packetBytes)  ETV
attr interpolationmode  none
attr source  packetSentToLower
attr title  "packets transmitted, vector(packetBytes)"
vector 105  intersection.r1.ppp[2].queue  rcvdPk:vector(packetBytes)  ETV
attr interpolationmode  none
attr title  "received packets, vector(packetBytes)"
vector 107  intersection.r1.ppp[2].queue  queueingTime:vector  ETV
attr interpolationmode  none
attr title  "queueing time, vector"
vector 114  intersection.r1.ppp[2].ppp  rcvdPkFromHL:vector(packetBytes)  ETV
attr interpolationmode  none
attr source  packetReceivedFromUpper
attr title  "packets received from higher layer, vector(packetBytes)"
vector 110  intersection.r1.ppp[2].ppp  txPk:vector(packetBytes)  ETV
attr interpolationmode  none
attr source  packetSentToLower
attr title  "packets transmitted, vector(packetBytes)"
vector 100  intersection.r1.ppp[1].ppp  rxPkOk:vector(packetBytes)  ETV
attr interpolationmode  none
attr source  rxPkOk
attr title  "packets received OK, vector(packetBytes)"
vector 104  intersection.r1.ppp[1].ppp  passedUpPk:vector(packetBytes)  ETV
attr interpolationmode  none
attr source  packetSentToUpper
attr title  "packets passed to higher layer, vector(packetBytes)"
vector 73  intersection.tl3.ppp[0].ppp  rxPkOk:vector(packetBytes)  ETV
attr interpolationmode  none
attr source  rxPkOk
attr title  "packets received OK, vector(packetBytes)"
vector 77  intersection.tl3.ppp[0].ppp  passedUpPk:vector(packetBytes)  ETV
attr interpolationmode  none
attr source  packetSentToUpper
attr title  "packets passed to higher layer, vector(packetBytes)"
vector 58  intersection.tl3.udp  rcvdPk:vector(packetBytes)  ETV
attr interpolationmode  none
attr source  rcvdPk
attr title  "packets received, vector(packetBytes)"
vector 59  intersection.tl3.udp  passedUpPk:vector(count)  ETV
attr interpolationmode  none
attr title  "packets passed up, vector(count)"
vector 52  intersection.tl3.sinkApp  rcvdPk:vector(packetBytes)  ETV
attr interpolationmode  none
attr source  rcvdPk
attr title  "packets received, vector(packetBytes)"
vector 53  intersection.tl3.sinkApp  endToEndDelay:vector  ETV
attr interpolationmode  none
attr source  messageAge(rcvdPk)
attr title  "end-to-end delay, vector"
attr unit  s
vector 21  intersection.tl1.ppp[0].ppp  rxPkOk:vector(packetBytes)  ETV
attr interpolationmode  none
attr source  rxPkOk
attr title  "packets received OK, vector(packetBytes)"
vector 25  intersection.tl1.ppp[0].ppp  passedUpPk:vector(packetBytes)  ETV
attr interpolationmode  none
attr source  packetSentToUpper
attr title  "packets passed to higher layer, vector(packetBytes)"
vector 6  intersection.tl1.udp  rcvdPk:vector(packetBytes)  ETV
attr interpolationmode  none
attr source  rcvdPk
attr title  "packets received, vector(packetBytes)"
vector 7  intersection.tl1.udp  passedUpPk:vector(count)  ETV
attr interpolationmode  none
attr title  "packets passed up, vector(count)"
vector 0  intersection.tl1.sinkApp  rcvdPk:vector(packetBytes)  ETV
attr interpolationmode  none
attr source  rcvdPk
attr title  "packets received, vector(packetBytes)"
vector 1  intersection.tl1.sinkApp  endToEndDelay:vector  ETV
attr interpolationmode  none
attr source  messageAge(rcvdPk)
attr title  "end-to-end delay, vector"
attr unit  s
vector 158  intersection.cn.ppp[0].ppp  rxPkOk:vector(packetBytes)  ETV
attr interpolationmode  none
attr source  rxPkOk
attr title  "packets received OK, vector(packetBytes)"
vector 162  intersection.cn.ppp[0].ppp  passedUpPk:vector(packetBytes)  ETV
attr interpolationmode  none
attr source  packetSentToUpper
attr title  "packets passed to higher layer, vector(packetBytes)"
vector 143  intersection.cn.udp  rcvdPk:vector(packetBytes)  ETV
attr interpolationmode  none
attr source  rcvdPk
attr title  "packets received, vector(packetBytes)"
vector 144  intersection.cn.udp  passedUpPk:vector(count)  ETV
attr interpolationmode  none
attr title  "packets passed up, vector(count)"
vector 127  intersection.cn.controlNodeSink1  rcvdPk:vector(packetBytes)  ETV
attr interpolationmode  none
attr source  rcvdPk
attr title  "packets received, vector(packetBytes)"
vector 128  intersection.cn.controlNodeSink1  endToEndDelay:vector  ETV
attr interpolationmode  none
attr source  messageAge(rcvdPk)
attr title  "end-to-end delay, vector"
attr unit  s
vector 47  intersection.tl2.ppp[0].ppp  rxPkOk:vector(packetBytes)  ETV
attr interpolationmode  none
attr source  rxPkOk
attr title  "packets received OK, vector(packetBytes)"
vector 51  intersection.tl2.ppp[0].ppp  passedUpPk:vector(packetBytes)  ETV
attr interpolationmode  none
attr source  packetSentToUpper
attr title  "packets passed to higher layer, vector(packetBytes)"
vector 32  intersection.tl2.udp  rcvdPk:vector(packetBytes)  ETV
attr interpolationmode  none
attr source  rcvdPk
attr title  "packets received, vector(packetBytes)"
vector 33  intersection.tl2.udp  passedUpPk:vector(count)  ETV
attr interpolationmode  none
attr title  "packets passed up, vector(count)"
vector 26  intersection.tl2.sinkApp  rcvdPk:vector(packetBytes)  ETV
attr interpolationmode  none
attr source  rcvdPk
attr title  "packets received, vector(packetBytes)"
vector 27  intersection.tl2.sinkApp  endToEndDelay:vector  ETV
attr interpolationmode  none
attr source  messageAge(rcvdPk)
attr title  "end-to-end delay, vector"
attr unit  s
vector 131  intersection.cn.controlNodeSink3  rcvdPk:vector(packetBytes)  ETV
attr interpolationmode  none
attr source  rcvdPk
attr title  "packets received, vector(packetBytes)"
vector 132  intersection.cn.controlNodeSink3  endToEndDelay:vector  ETV
attr interpolationmode  none
attr source  messageAge(rcvdPk)
attr title  "end-to-end delay, vector"
attr unit  s
vector 129  intersection.cn.controlNodeSink2  rcvdPk:vector(packetBytes)  ETV
attr interpolationmode  none
attr source  rcvdPk
attr title  "packets received, vector(packetBytes)"
vector 130  intersection.cn.controlNodeSink2  endToEndDelay:vector  ETV
attr interpolationmode  none
attr source  messageAge(rcvdPk)
attr title  "end-to-end delay, vector"
attr unit  s
0	167	0.000384454618	0
0	401	0.500384454618	0
0	665	1.000384454618	0
0	899	1.500384454618	0
0	1163	2.000384454618	0
0	1397	2.500384454618	0
0	1661	3.000384454618	0
0	1895	3.500384454618	0
0	2159	4.000384454618	0
0	2393	4.500384454618	0
0	2660	5.000384454618	0
0	2900	5.500384454618	0
0	3173	6.000384454618	0
0	3413	6.500384454618	0
0	3686	7.000384454618	0
0	3926	7.500384454618	0
0	4199	8.000384454618	0
0	4439	8.500384454618	0
0	4712	9.000384454618	0
0	4952	9.500384454618	0
0	5225	10.000384454618	0
0	5465	10.500384454618	0
0	5738	11.000384454618	0
0	5978	11.500384454618	0
0	6251	12.000384454618	0
0	6491	12.500384454618	0
0	6764	13.000384454618	0
0	7004	13.500384454618	0
0	7277	14.000384454618	0
0	7517	14.500384454618	0
0	7790	15.000384454618	0
0	8030	15.500384454618	0
0	8303	16.000384454618	0
0	8543	16.500384454618	0
0	8816	17.000384454618	0
0	9056	17.500384454618	0
0	9329	18.000384454618	0
0	9569	18.500384454618	0
0	9842	19.000384454618	0
0	10082	19.500384454618	0
0	10355	20.000384454618	0
0	10595	20.500384454618	0
0	10868	21.000384454618	0
0	11108	21.500384454618	0
0	11381	22.000384454618	0
0	11621	22.500384454618	0
0	11894	23.000384454618	0
0	12134	23.500384454618	0
0	12407	24.000384454618	0
0	12647	24.500384454618	0
0	12920	25.000384454618	0
0	13160	25.500384454618	0
0	13433	26.000384454618	0
0	13673	26.500384454618	0
0	13946	27.000384454618	0
0	14186	27.500384454618	0
0	14459	28.000384454618	0
0	14699	28.500384454618	0
0	14972	29.000384454618	0
0	15212	29.500384454618	0
0	15485	30.000384454618	0
0	15725	30.500384454618	0
0	15998	31.000384454618	0
0	16238	31.500384454618	0
0	16511	32.000384454618	0
0	16751	32.500384454618	0
0	17024	33.000384454618	0
0	17264	33.500384454618	0
0	17537	34.000384454618	0
0	17777	34.500384454618	0
0	18050	35.000384454618	0
0	18290	35.500384454618	0
0	18563	36.000384454618	0
0	18803	36.500384454618	0
0	19076	37.000384454618	0
0	19316	37.500384454618	0
0	19589	38.000384454618	0
0	19829	38.500384454618	0
1	167	0.000384454618	0.000384454618
1	401	0.500384454618	0.000384454618
1	665	1.000384454618	0.000384454618
1	899	1.500384454618	0.000384454618
1	1163	2.000384454618	0.000384454618
1	1397	2.500384454618	0.000384454618
1	1661	3.000384454618	0.000384454618
1	1895	3.500384454618	0.000384454618
1	2159	4.000384454618	0.000384454618
1	2393	4.500384454618	0.000384454618
1	2660	5.000384454618	0.000384454618
1	2900	5.500384454618	0.000384454618
1	3173	6.000384454618	0.000384454618
1	3413	6.500384454618	0.000384454618
1	3686	7.000384454618	0.000384454618
1	3926	7.500384454618	0.000384454618
1	4199	8.000384454618	0.000384454618
1	4439	8.500384454618	0.000384454618
1	4712	9.000384454618	0.000384454618
1	4952	9.500384454618	0.000384454618
1	5225	10.000384454618	0.000384454618
1	5465	10.500384454618	0.000384454618
1	5738	11.000384454618	0.000384454618
1	5978	11.500384454618	0.000384454618
1	6251	12.000384454618	0.000384454618
1	6491	12.500384454618	0.000384454618
1	6764	13.000384454618	0.000384454618
1	7004	13.500384454618	0.000384454618
1	7277	14.000384454618	0.000384454618
1	7517	14.500384454618	0.000384454618
1	7790	15.000384454618	0.000384454618
1	8030	15.500384454618	0.000384454618
1	8303	16.000384454618	0.000384454618
1	8543	16.500384454618	0.000384454618
1	8816	17.000384454618	0.000384454618
1	9056	17.500384454618	0.000384454618
1	9329	18.000384454618	0.000384454618
1	9569	18.500384454618	0.000384454618
1	9842	19.000384454618	0.000384454618
1	10082	19.500384454618	0.000384454618
1	10355	20.000384454618	0.000384454618
1	10595	20.500384454618	0.000384454618
1	10868	21.000384454618	0.000384454618
1	11108	21.500384454618	0.000384454618
1	11381	22.000384454618	0.000384454618
1	11621	22.500384454618	0.000384454618
1	11894	23.000384454618	0.000384454618
1	12134	23.500384454618	0.000384454618
1	12407	24.000384454618	0.000384454618
1	12647	24.500384454618	0.000384454618
1	12920	25.000384454618	0.000384454618
1	13160	25.500384454618	0.000384454618
1	13433	26.000384454618	0.000384454618
1	13673	26.500384454618	0.000384454618
1	13946	27.000384454618	0.000384454618
1	14186	27.500384454618	0.000384454618
1	14459	28.000384454618	0.000384454618
1	14699	28.500384454618	0.000384454618
1	14972	29.000384454618	0.000384454618
1	15212	29.500384454618	0.000384454618
1	15485	30.000384454618	0.000384454618
1	15725	30.500384454618	0.000384454618
1	15998	31.000384454618	0.000384454618
1	16238	31.500384454618	0.000384454618
1	16511	32.000384454618	0.000384454618
1	16751	32.500384454618	0.000384454618
1	17024	33.000384454618	0.000384454618
1	17264	33.500384454618	0.000384454618
1	17537	34.000384454618	0.000384454618
1	17777	34.500384454618	0.000384454618
1	18050	35.000384454618	0.000384454618
1	18290	35.500384454618	0.000384454618
1	18563	36.000384454618	0.000384454618
1	18803	36.500384454618	0.000384454618
1	19076	37.000384454618	0.000384454618
1	19316	37.500384454618	0.000384454618
1	19589	38.000384454618	0.000384454618
1	19829	38.500384454618	0.000384454618
3	20	0	0
3	199	0.2	0
3	271	0.4	0
3	412	0.6	0
3	484	0.8	0
3	559	1	0
3	697	1.2	0
3	769	1.4	0
3	910	1.6	0
3	982	1.8	0
3	1057	2	0
3	1195	2.2	0
3	1267	2.4	0
3	1408	2.6	0
3	1480	2.8	0
3	1555	3	0
3	1693	3.2	0
3	1765	3.4	0
3	1906	3.6	0
3	1978	3.8	0
3	2053	4	0
3	2191	4.2	0
3	2263	4.4	0
3	2404	4.6	0
3	2476	4.8	0
3	2552	5	0
3	2693	5.2	0
3	2768	5.4	0
3	2912	5.6	0
3	2987	5.8	0
3	3065	6	0
3	3206	6.2	0
3	3281	6.4	0
3	3425	6.6	0
3	3500	6.8	0
3	3578	7	0
3	3719	7.2	0
3	3794	7.4	0
3	3938	7.6	0
3	4013	7.8	0
3	4091	8	0
3	4234	8.2	0
3	4309	8.4	0
3	4453	8.6	0
3	4528	8.8	0
3	4606	9	0
3	4747	9.2	0
3	4822	9.4	0
3	4966	9.6	0
3	5041	9.8	0
3	5119	10	0
3	5260	10.2	0
3	5335	10.4	0
3	5479	10.6	0
3	5554	10.8	0
3	5632	11	0
3	5773	11.2	0
3	5848	11.4	0
3	5992	11.6	0
3	6067	11.8	0
3	6145	12	0
3	6286	12.2	0
3	6361	12.4	0
3	6505	12.6	0
3	6580	12.8	0
3	6658	13	0
3	6799	13.2	0
3	6874	13.4	0
3	7018	13.6	0
3	7093	13.8	0
3	7171	14	0
3	7312	14.2	0
3	7387	14.4	0
3	7531	14.6	0
3	7606	14.8	0
3	7684	15	0
3	7825	15.2	0
3	7900	15.4	0
3	8044	15.6	0
3	8119	15.8	0
3	8197	16	0
3	8338	16.2	0
3	8413	16.4	0
3	8557	16.6	0
3	8632	16.8	0
3	8710	17	0
3	8851	17.2	0
3	8926	17.4	0
3	9070	17.6	0
3	9145	17.8	0
3	9223	18	0
3	9364	18.2	0
3	9439	18.4	0
3	9583	18.6	0
3	9658	18.8	0
3	9736	19	0
3	9877	19.2	0
3	9952	19.4	0
3	10096	19.6	0
3	10171	19.8	0
3	10249	20	0
3	10390	20.2	0
3	10465	20.4	0
3	10609	20.6	0
3	10684	20.8	0
3	10762	21	0
3	10903	21.2	0
3	10978	21.4	0
3	11122	21.6	0
3	11197	21.8	0
3	11275	22	0
3	11416	22.2	0
3	11491	22.4	0
3	11635	22.6	0
3	11710	22.8	0
3	11788	23	0
3	11929	23.2	0
3	12004	23.4	0
3	12148	23.6	0
3	12223	23.8	0
3	12301	24	0
3	12442	24.2	0
3	12517	24.4	0
3	12661	24.6	0
3	12736	24.8	0
3	12814	25	0
3	12955	25.2	0
3	13030	25.4	0
3	13174	25.6	0
3	13249	25.8	0
3	13327	26	0
3	13468	26.2	0
3	13543	26.4	0
3	13687	26.6	0
3	13762	26.8	0
3	13840	27	0
3	13981	27.2	0
3	14056	27.4	0
3	14200	27.6	0
3	14275	27.8	0
3	14353	28	0
3	14494	28.2	0
3	14569	28.4	0
3	14713	28.6	0
3	14788	28.8	0
3	14866	29	0
3	15007	29.2	0
3	15082	29.4	0
3	15226	29.6	0
3	15301	29.8	0
3	15379	30	0
3	15520	30.2	0
3	15595	30.4	0
3	15739	30.6	0
3	15814	30.8	0
3	15892	31	0
3	16033	31.2	0
3	16108	31.4	0
3	16252	31.6	0
3	16327	31.8	0
3	16405	32	0
3	16546	32.2	0
3	16621	32.4	0
3	16765	32.6	0
3	16840	32.8	0
3	16918	33	0
3	17059	33.2	0
3	17134	33.4	0
3	17278	33.6	0
3	17353	33.8	0
3	17431	34	0
3	17572	34.2	0
3	17647	34.4	0
3	17791	34.6	0
3	17866	34.8	0
3	17944	35	0
3	18085	35.2	0
3	18160	35.4	0
3	18304	35.6	0
3	18379	35.8	0
3	18457	36	0
3	18598	36.2	0
3	18673	36.4	0
3	18817	36.6	0
3	18892	36.8	0
3	18970	37	0
3	19111	37.2	0
3	19186	37.4	0
3	19330	37.6	0
3	19405	37.8	0
3	19483	38	0
3	19624	38.2	0
3	19699	38.4	0
3	19843	38.6	0
5	65	0	8
5	205	0.2	8
5	277	0.4	8
5	418	0.6	8
5	490	0.8	8
5	571	1	8
5	703	1.2	8
5	775	1.4	8
5	916	1.6	8
5	988	1.8	8
5	1069	2	8
5	1201	2.2	8
5	1273	2.4	8
5	1414	2.6	8
5	1486	2.8	8
5	1567	3	8
5	1699	3.2	8
5	1771	3.4	8
5	1912	3.6	8
5	1984	3.8	8
5	2065	4	8
5	2197	4.2	8
5	2269	4.4	8
5	2410	4.6	8
5	2482	4.8	8
5	2566	5	8
5	2701	5.2	8
5	2776	5.4	8
5	2920	5.6	8
5	2995	5.8	8
5	3079	6	8
5	3214	6.2	8
5	3289	6.4	8
5	3433	6.6	8
5	3508	6.8	8
5	3592	7	8
5	3727	7.2	8
5	3802	7.4	8
5	3946	7.6	8
5	4021	7.8	8
5	4105	8	8
5	4240	8.2	8
5	4315	8.4	8
5	4459	8.6	8
5	4534	8.8	8
5	4618	9	8
5	4753	9.2	8
5	4828	9.4	8
5	4972	9.6	8
5	5047	9.8	8
5	5131	10	8
5	5266	10.2	8
5	5341	10.4	8
5	5485	10.6	8
5	5560	10.8	8
5	5644	11	8
5	5779	11.2	8
5	5854	11.4	8
5	5998	11.6	8
5	6073	11.8	8
5	6157	12	8
5	6292	12.2	8
5	6367	12.4	8
5	6511	12.6	8
5	6586	12.8	8
5	6670	13	8
5	6805	13.2	8
5	6880	13.4	8
5	7024	13.6	8
5	7099	13.8	8
5	7183	14	8
5	7318	14.2	8
5	7393	14.4	8
5	7537	14.6	8
5	7612	14.8	8
5	7696	15	8
5	7831	15.2	8
5	7906	15.4	8
5	8050	15.6	8
5	8125	15.8	8
5	8209	16	8
5	8344	16.2	8
5	8419	16.4	8
5	8563	16.6	8
5	8638	16.8	8
5	8722	17	8
5	8857	17.2	8
5	8932	17.4	8
5	9076	17.6	8
5	9151	17.8	8
5	9235	18	8
5	9370	18.2	8
5	9445	18.4	8
5	9589	18.6	8
5	9664	18.8	8
5	9748	19	8
5	9883	19.2	8
5	9958	19.4	8
5	10102	19.6	8
5	10177	19.8	8
5	10261	20	8
5	10396	20.2	8
5	10471	20.4	8
5	10615	20.6	8
5	10690	20.8	8
5	10774	21	8
5	10909	21.2	8
5	10984	21.4	8
5	11128	21.6	8
5	11203	21.8	8
5	11287	22	8
5	11422	22.2	8
5	11497	22.4	8
5	11641	22.6	8
5	11716	22.8	8
5	11800	23	8
5	11935	23.2	8
5	12010	23.4	8
5	12154	23.6	8
5	12229	23.8	8
5	12313	24	8
5	12448	24.2	8
5	12523	24.4	8
5	12667	24.6	8
5	12742	24.8	8
5	12826	25	8
5	12961	25.2	8
5	13036	25.4	8
5	13180	25.6	8
5	13255	25.8	8
5	13339	26	8
5	13474	26.2	8
5	13549	26.4	8
5	13693	26.6	8
5	13768	26.8	8
5	13852	27	8
5	13987	27.2	8
5	14062	27.4	8
5	14206	27.6	8
5	14281	27.8	8
5	14365	28	8
5	14500	28.2	8
5	14575	28.4	8
5	14719	28.6	8
5	14794	28.8	8
5	14878	29	8
5	15013	29.2	8
5	15088	29.4	8
5	15232	29.6	8
5	15307	29.8	8
5	15391	30	8
5	15526	30.2	8
5	15601	30.4	8
5	15745	30.6	8
5	15820	30.8	8
5	15904	31	8
5	16039	31.2	8
5	16114	31.4	8
5	16258	31.6	8
5	16333	31.8	8
5	16417	32	8
5	16552	32.2	8
5	16627	32.4	8
5	16771	32.6	8
5	16846	32.8	8
5	16930	33	8
5	17065	33.2	8
5	17140	33.4	8
5	17284	33.6	8
5	17359	33.8	8
5	17443	34	8
5	17578	34.2	8
5	17653	34.4	8
5	17797	34.6	8
5	17872	34.8	8
5	17956	35	8
5	18091	35.2	8
5	18166	35.4	8
5	18310	35.6	8
5	18385	35.8	8
5	18469	36	8
5	18604	36.2	8
5	18679	36.4	8
5	18823	36.6	8
5	18898	36.8	8
5	18982	37	8
5	19117	37.2	8
5	19192	37.4	8
5	19336	37.6	8
5	19411	37.8	8
5	19495	38	8
5	19630	38.2	8
5	19705	38.4	8
5	19849	38.6	8
6	165	0.000384454618	8
6	399	0.500384454618	8
6	663	1.000384454618	8
6	897	1.500384454618	8
6	1161	2.000384454618	8
6	1395	2.500384454618	8
6	1659	3.000384454618	8
6	1893	3.500384454618	8
6	2157	4.000384454618	8
6	2391	4.500384454618	8
6	2658	5.000384454618	8
6	2898	5.500384454618	8
6	3171	6.000384454618	8
6	3411	6.500384454618	8
6	3684	7.000384454618	8
6	3924	7.500384454618	8
6	4197	8.000384454618	8
6	4437	8.500384454618	8
6	4710	9.000384454618	8
6	4950	9.500384454618	8
6	5223	10.000384454618	8
6	5463	10.500384454618	8
6	5736	11.000384454618	8
6	5976	11.500384454618	8
6	6249	12.000384454618	8
6	6489	12.500384454618	8
6	6762	13.000384454618	8
6	7002	13.500384454618	8
6	7275	14.000384454618	8
6	7515	14.500384454618	8
6	7788	15.000384454618	8
6	8028	15.500384454618	8
6	8301	16.000384454618	8
6	8541	16.500384454618	8
6	8814	17.000384454618	8
6	9054	17.500384454618	8
6	9327	18.000384454618	8
6	9567	18.500384454618	8
6	9840	19.000384454618	8
6	10080	19.500384454618	8
6	10353	20.000384454618	8
6	10593	20.500384454618	8
6	10866	21.000384454618	8
6	11106	21.500384454618	8
6	11379	22.000384454618	8
6	11619	22.500384454618	8
6	11892	23.000384454618	8
6	12132	23.500384454618	8
6	12405	24.000384454618	8
6	12645	24.500384454618	8
6	12918	25.000384454618	8
6	13158	25.500384454618	8
6	13431	26.000384454618	8
6	13671	26.500384454618	8
6	13944	27.000384454618	8
6	14184	27.500384454618	8
6	14457	28.000384454618	8
6	14697	28.500384454618	8
6	14970	29.000384454618	8
6	15210	29.500384454618	8
6	15483	30.000384454618	8
6	15723	30.500384454618	8
6	15996	31.000384454618	8
6	16236	31.500384454618	8
6	16509	32.000384454618	8
6	16749	32.500384454618	8
6	17022	33.000384454618	8
6	17262	33.500384454618	8
6	17535	34.000384454618	8
6	17775	34.500384454618	8
6	18048	35.000384454618	8
6	18288	35.500384454618	8
6	18561	36.000384454618	8
6	18801	36.500384454618	8
6	19074	37.000384454618	8
6	19314	37.500384454618	8
6	19587	38.000384454618	8
6	19827	38.500384454618	8
7	165	0.000384454618	1
7	399	0.500384454618	2
7	663	1.000384454618	3
7	897	1.500384454618	4
7	1161	2.000384454618	5
7	1395	2.500384454618	6
7	1659	3.000384454618	7
7	1893	3.500384454618	8
7	2157	4.000384454618	9
7	2391	4.500384454618	10
7	2658	5.000384454618	11
7	2898	5.500384454618	12
7	3171	6.000384454618	13
7	3411	6.500384454618	14
7	3684	7.000384454618	15
7	3924	7.500384454618	16
7	4197	8.000384454618	17
7	4437	8.500384454618	18
7	4710	9.000384454618	19
7	4950	9.500384454618	20
7	5223	10.000384454618	21
7	5463	10.500384454618	22
7	5736	11.000384454618	23
7	5976	11.500384454618	24
7	6249	12.000384454618	25
7	6489	12.500384454618	26
7	6762	13.000384454618	27
7	7002	13.500384454618	28
7	7275	14.000384454618	29
7	7515	14.500384454618	30
7	7788	15.000384454618	31
7	8028	15.500384454618	32
7	8301	16.000384454618	33
7	8541	16.500384454618	34
7	8814	17.000384454618	35
7	9054	17.500384454618	36
7	9327	18.000384454618	37
7	9567	18.500384454618	38
7	9840	19.000384454618	39
7	10080	19.500384454618	40
7	10353	20.000384454618	41
7	10593	20.500384454618	42
7	10866	21.000384454618	43
7	11106	21.500384454618	44
7	11379	22.000384454618	45
7	11619	22.500384454618	46
7	11892	23.000384454618	47
7	12132	23.500384454618	48
7	12405	24.000384454618	49
7	12645	24.500384454618	50
7	12918	25.000384454618	51
7	13158	25.500384454618	52
7	13431	26.000384454618	53
7	13671	26.500384454618	54
7	13944	27.000384454618	55
7	14184	27.500384454618	56
7	14457	28.000384454618	57
7	14697	28.500384454618	58
7	14970	29.000384454618	59
7	15210	29.500384454618	60
7	15483	30.000384454618	61
7	15723	30.500384454618	62
7	15996	31.000384454618	63
7	16236	31.500384454618	64
7	16509	32.000384454618	65
7	16749	32.500384454618	66
7	17022	33.000384454618	67