version 2
run traffic-jam-1-0-20150528-00:11:11-15113
attr configname traffic-jam-1
attr datetime 20150528-00:11:11
attr experiment traffic-jam-1
attr inifile omnetpp.ini
attr iterationvars ""
attr iterationvars2 $repetition=0
attr measurement ""
attr network intersection
attr processid 15113
attr repetition 0
attr replication #0
attr resultdir results
attr runnumber 0
attr seedset 0

vector 18  intersection.tl1.ppp[0].queue  queueLength:vector  ETV
attr interpolationmode  sample-hold
attr title  "queue length, vector"
vector 19  intersection.tl1.ppp[0].ppp  txState:vector  ETV
attr interpolationmode  sample-hold
attr title  "tx state, vector"
vector 44  intersection.tl2.ppp[0].queue  queueLength:vector  ETV
attr interpolationmode  sample-hold
attr title  "queue length, vector"
vector 45  intersection.tl2.ppp[0].ppp  txState:vector  ETV
attr interpolationmode  sample-hold
attr title  "tx state, vector"
vector 70  intersection.tl3.ppp[0].queue  queueLength:vector  ETV
attr interpolationmode  sample-hold
attr title  "queue length, vector"
vector 71  intersection.tl3.ppp[0].ppp  txState:vector  ETV
attr interpolationmode  sample-hold
attr title  "tx state, vector"
vector 86  intersection.r1.ppp[0].queue  queueLength:vector  ETV
attr interpolationmode  sample-hold
attr title  "queue length, vector"
vector 87  intersection.r1.ppp[0].ppp  txState:vector  ETV
attr interpolationmode  sample-hold
attr title  "tx state, vector"
vector 97  intersection.r1.ppp[1].queue  queueLength:vector  ETV
attr interpolationmode  sample-hold
attr title  "queue length, vector"
vector 98  intersection.r1.ppp[1].ppp  txState:vector  ETV
attr interpolationmode  sample-hold
attr title  "tx state, vector"
vector 108  intersection.r1.ppp[2].queue  queueLength:vector  ETV
attr interpolationmode  sample-hold
attr title  "queue length, vector"
vector 109  intersection.r1.ppp[2].ppp  txState:vector  ETV
attr interpolationmode  sample-hold
attr title  "tx state, vector"
vector 119  intersection.r1.ppp[3].queue  queueLength:vector  ETV
attr interpolationmode  sample-hold
attr title  "queue length, vector"
vector 120  intersection.r1.ppp[3].ppp  txState:vector  ETV
attr interpolationmode  sample-hold
attr title  "tx state, vector"
vector 155  intersection.cn.ppp[0].queue  queueLength:vector  ETV
attr interpolationmode  sample-hold
attr title  "queue length, vector"
vector 156  intersection.cn.ppp[0].ppp  txState:vector  ETV
attr interpolationmode  sample-hold
attr title  "tx state, vector"
vector 3  intersection.tl1.senderApp  sentPk:vector(packetBytes)  ETV
attr interpolationmode  none
attr source  sentPk
attr title  "packets sent, vector(packetBytes)"
vector 29  intersection.tl2.senderApp  sentPk:vector(packetBytes)  ETV
attr interpolationmode  none
attr source  sentPk
attr title  "packets sent, vector(packetBytes)"
vector 55  intersection.tl3.senderApp  sentPk:vector(packetBytes)  ETV
attr interpolationmode  none
attr source  sentPk
attr title  "packets sent, vector(packetBytes)"
vector 134  intersection.cn.sender1  sentPk:vector(packetBytes)  ETV
attr interpolationmode  none
attr source  sentPk
attr title  "packets sent, vector(packetBytes)"
vector 137  intersection.cn.sender2  sentPk:vector(packetBytes)  ETV
attr interpolationmode  none
attr source  sentPk
attr title  "packets sent, vector(packetBytes)"
vector 140  intersection.cn.sender3  sentPk:vector(packetBytes)  ETV
attr interpolationmode  none
attr source  sentPk
attr title  "packets sent, vector(packetBytes)"
vector 5  intersection.tl1.udp  sentPk:vector(packetBytes)  ETV
attr interpolationmode  none
attr source  sentPk
attr title  "packets sent, vector(packetBytes)"
vector 31  intersection.tl2.udp  sentPk:vector(packetBytes)  ETV
attr interpolationmode  none
attr source  sentPk
attr title  "packets sent, vector(packetBytes)"
vector 57  intersection.tl3.udp  sentPk:vector(packetBytes)  ETV
attr interpolationmode  none
attr source  sentPk
attr title  "packets sent, vector(packetBytes)"
vector 142  intersection.cn.udp  sentPk:vector(packetBytes)  ETV
attr interpolationmode  none
attr source  sentPk
attr title  "packets sent, vector(packetBytes)"
vector 15  intersection.tl1.ppp[0].queue  rcvdPk:vector(packetBytes)  ETV
attr interpolationmode  none
attr title  "received packets, vector(packetBytes)"
vector 17  intersection.tl1.ppp[0].queue  queueingTime:vector  ETV
attr interpolationmode  none
attr title  "queueing time, vector"
vector 41  intersection.tl2.ppp[0].queue  rcvdPk:vector(packetBytes)  ETV
attr interpolationmode  none
attr title  "received packets, vector(packetBytes)"
vector 43  intersection.tl2.ppp[0].queue  queueingTime:vector  ETV
attr interpolationmode  none
attr title  "queueing time, vector"
vector 67  intersection.tl3.ppp[0].queue  rcvdPk:vector(packetBytes)  ETV
attr interpolationmode  none
attr title  "received packets, vector(packetBytes)"
vector 69  intersection.tl3.ppp[0].queue  queueingTime:vector  ETV
attr interpolationmode  none
attr title  "queueing time, vector"
vector 152  intersection.cn.ppp[0].queue  rcvdPk:vector(packetBytes)  ETV
attr interpolationmode  none
attr title  "received packets, vector(packetBytes)"
vector 154  intersection.cn.ppp[0].queue  queueingTime:vector  ETV
attr interpolationmode  none
attr title  "queueing time, vector"
vector 24  intersection.tl1.ppp[0].ppp  rcvdPkFromHL:vector(packetBytes)  ETV
attr interpolationmode  none
attr source  packetReceivedFromUpper
attr title  "packets received from higher layer, vector(packetBytes)"
vector 20  intersection.tl1.ppp[0].ppp  txPk:vector(packetBytes)  ETV
attr interpolationmode  none
attr source  packetSentToLower
attr title  "packets transmitted, vector(packetBytes)"
vector 50  intersection.tl2.ppp[0].ppp  rcvdPkFromHL:vector(packetBytes)  ETV
attr interpolationmode  none
attr source  packetReceivedFromUpper
attr title  "packets received from higher layer, vector(packetBytes)"
vector 46  intersection.tl2.ppp[0].ppp  txPk:vector(packetBytes)  ETV
attr interpolationmode  none
attr source  packetSentToLower
attr title  "packets transmitted, vector(packetBytes)"
vector 76  intersection.tl3.ppp[0].ppp  rcvdPkFromHL:vector(packetBytes)  ETV
attr interpolationmode  none
attr source  packetReceivedFromUpper
attr title  "packets received from higher layer, vector(packetBytes)"
vector 72  intersection.tl3.ppp[0].ppp  txPk:vector(packetBytes)  ETV
attr interpolationmode  none
attr source  packetSentToLower
attr title  "packets transmitted, vector(packetBytes)"
vector 161  intersection.cn.ppp[0].ppp  rcvdPkFromHL:vector(packetBytes)  ETV
attr interpolationmode  none
attr source  packetReceivedFromUpper
attr title  "packets received from higher layer, vector(packetBytes)"
vector 157  intersection.cn.ppp[0].ppp  txPk:vector(packetBytes)  ETV
attr interpolationmode  none
attr source  packetSentToLower
attr title  "packets transmitted, vector(packetBytes)"
vector 89  intersection.r1.ppp[0].ppp  rxPkOk:vector(packetBytes)  ETV
attr interpolationmode  none
attr source  rxPkOk
attr title  "packets received OK, vector(packetBytes)"
vector 93  intersection.r1.ppp[0].ppp  passedUpPk:vector(packetBytes)  ETV
attr interpolationmode  none
attr source  packetSentToUpper
attr title  "packets passed to higher layer, vector(packetBytes)"
vector 116  intersection.r1.ppp[3].queue  rcvdPk:vector(packetBytes)  ETV
attr interpolationmode  none
attr title  "received packets, vector(packetBytes)"
vector 118  intersection.r1.ppp[3].queue  queueingTime:vector  ETV
attr interpolationmode  none
attr title  "queueing time, vector"
vector 125  intersection.r1.ppp[3].ppp  rcvdPkFromHL:vector(packetBytes)  ETV
attr interpolationmode  none
attr source  packetReceivedFromUpper
attr title  "packets received from higher layer, vector(packetBytes)"
vector 121  intersection.r1.ppp[3].ppp  txPk:vector(packetBytes)  ETV
attr interpolationmode  none
attr source  packetSentToLower
attr title  "packets transmitted, vector(packetBytes)"
vector 111  intersection.r1.ppp[2].ppp  rxPkOk:vector(packetBytes)  ETV
attr interpolationmode  none
attr source  rxPkOk
attr title  "packets received OK, vector(packetBytes)"
vector 115  intersection.r1.ppp[2].ppp  passedUpPk:vector(packetBytes)  ETV
attr interpolationmode  none
attr source  packetSentToUpper
attr title  "packets passed to higher layer, vector(packetBytes)"
vector 122  intersection.r1.ppp[3].ppp  rxPkOk:vector(packetBytes)  ETV
attr interpolationmode  none
attr source  rxPkOk
attr title  "packets received OK, vector(packetBytes)"
vector 126  intersection.r1.ppp[3].ppp  passedUpPk:vector(packetBytes)  ETV
attr interpolationmode  none
attr source  packetSentToUpper
attr title  "packets passed to higher layer, vector(packetBytes)"
vector 83  intersection.r1.ppp[0].queue  rcvdPk:vector(packetBytes)  ETV
attr interpolationmode  none
attr title  "received packets, vector(packetBytes)"
vector 85  intersection.r1.ppp[0].queue  queueingTime:vector  ETV
attr interpolationmode  none
attr title  "queueing time, vector"
vector 92  intersection.r1.ppp[0].ppp  rcvdPkFromHL:vector(packetBytes)  ETV
attr interpolationmode  none
attr source  packetReceivedFromUpper
attr title  "packets received from higher layer, vector(packetBytes)"
vector 88  intersection.r1.ppp[0].ppp  txPk:vector(packetBytes)  ETV
attr interpolationmode  none
attr source  packetSentToLower
attr title  "packets transmitted, vector(packetBytes)"
vector 94  intersection.r1.ppp[1].queue  rcvdPk:vector(packetBytes)  ETV
attr interpolationmode  none
attr title  "received packets, vector(packetBytes)"
vector 96  intersection.r1.ppp[1].queue  queueingTime:vector  ETV
attr interpolationmode  none
attr title  "queueing time, vector"
vector 103  intersection.r1.ppp[1].ppp  rcvdPkFromHL:vector(packetBytes)  ETV
attr interpolationmode  none
attr source  packetReceivedFromUpper
attr title  "packets received from higher layer, vector(packetBytes)"
vector 99  intersection.r1.ppp[1].ppp  txPk:vector(packetBytes)  ETV
attr interpolationmode  none
attr source  packetSentToLower
attr title  "packets transmitted, vector(packetBytes)"
vector 105  intersection.r1.ppp[2].queue  rcvdPk:vector(packetBytes)  ETV
attr interpolationmode  none
attr title  "received packets, vector(packetBytes)"
vector 107  intersection.r1.ppp[2].queue  queueingTime:vector  ETV
attr interpolationmode  none
attr title  "queueing time, vector"
vector 114  intersection.r1.ppp[2].ppp  rcvdPkFromHL:vector(packetBytes)  ETV
attr interpolationmode  none
attr source  packetReceivedFromUpper
attr title  "packets received from higher layer, vector(packetBytes)"
vector 110  intersection.r1.ppp[2].ppp  txPk:vector(packetBytes)  ETV
attr interpolationmode  none
attr source  packetSentToLower
attr title  "packets transmitted, vector(packetBytes)"
vector 100  intersection.r1.ppp[1].ppp  rxPkOk:vector(packetBytes)  ETV
attr interpolationmode  none
attr source  rxPkOk
attr title  "packets received OK, vector(packetBytes)"
vector 104  intersection.r1.ppp[1].ppp  passedUpPk:vector(packetBytes)  ETV
attr interpolationmode  none
attr source  packetSentToUpper
attr title  "packets passed to higher layer, vector(packetBytes)"
vector 73  intersection.tl3.ppp[0].ppp  rxPkOk:vector(packetBytes)  ETV
attr interpolationmode  none
attr source  rxPkOk
attr title  "packets received OK, vector(packetBytes)"
vector 77  intersection.tl3.ppp[0].ppp  passedUpPk:vector(packetBytes)  ETV
attr interpolationmode  none
attr source  packetSentToUpper
attr title  "packets passed to higher layer, vector(packetBytes)"
vector 58  intersection.tl3.udp  rcvdPk:vector(packetBytes)  ETV
attr interpolationmode  none
attr source  rcvdPk
attr title  "packets received, vector(packetBytes)"
vector 59  intersection.tl3.udp  passedUpPk:vector(count)  ETV
attr interpolationmode  none
attr title  "packets passed up, vector(count)"
vector 52  intersection.tl3.sinkApp  rcvdPk:vector(packetBytes)  ETV
attr interpolationmode  none
attr source  rcvdPk
attr title  "packets received, vector(packetBytes)"
vector 53  intersection.tl3.sinkApp  endToEndDelay:vector  ETV
attr interpolationmode  none
attr source  messageAge(rcvdPk)
attr title  "end-to-end delay, vector"
attr unit  s
vector 21  intersection.tl1.ppp[0].ppp  rxPkOk:vector(packetBytes)  ETV
attr interpolationmode  none
attr source  rxPkOk
attr title  "packets received OK, vector(packetBytes)"
vector 25  intersection.tl1.ppp[0].ppp  passedUpPk:vector(packetBytes)  ETV
attr interpolationmode  none
attr source  packetSentToUpper
attr title  "packets passed to higher layer, vector(packetBytes)"
vector 6  intersection.tl1.udp  rcvdPk:vector(packetBytes)  ETV
attr interpolationmode  none
attr source  rcvdPk
attr title  "packets received, vector(packetBytes)"
vector 7  intersection.tl1.udp  passedUpPk:vector(count)  ETV
attr interpolationmode  none
attr title  "packets passed up, vector(count)"
vector 0  intersection.tl1.sinkApp  rcvdPk:vector(packetBytes)  ETV
attr interpolationmode  none
attr source  rcvdPk
attr title  "packets received, vector(packetBytes)"
vector 1  intersection.tl1.sinkApp  endToEndDelay:vector  ETV
attr interpolationmode  none
attr source  messageAge(rcvdPk)
attr title  "end-to-end delay, vector"
attr unit  s
vector 158  intersection.cn.ppp[0].ppp  rxPkOk:vector(packetBytes)  ETV
attr interpolationmode  none
attr source  rxPkOk
attr title  "packets received OK, vector(packetBytes)"
vector 162  intersection.cn.ppp[0].ppp  passedUpPk:vector(packetBytes)  ETV
attr interpolationmode  none
attr source  packetSentToUpper
attr title  "packets passed to higher layer, vector(packetBytes)"
vector 143  intersection.cn.udp  rcvdPk:vector(packetBytes)  ETV
attr interpolationmode  none
attr source  rcvdPk
attr title  "packets received, vector(packetBytes)"
vector 144  intersection.cn.udp  passedUpPk:vector(count)  ETV
attr interpolationmode  none
attr title  "packets passed up, vector(count)"
vector 127  intersection.cn.controlNodeSink1  rcvdPk:vector(packetBytes)  ETV
attr interpolationmode  none
attr source  rcvdPk
attr title  "packets received, vector(packetBytes)"
vector 128  intersection.cn.controlNodeSink1  endToEndDelay:vector  ETV
attr interpolationmode  none
attr source  messageAge(rcvdPk)
attr title  "end-to-end delay, vector"
attr unit  s
vector 47  intersection.tl2.ppp[0].ppp  rxPkOk:vector(packetBytes)  ETV
attr interpolationmode  none
attr source  rxPkOk
attr title  "packets received OK, vector(packetBytes)"
vector 51  intersection.tl2.ppp[0].ppp  passedUpPk:vector(packetBytes)  ETV
attr interpolationmode  none
attr source  packetSentToUpper
attr title  "packets passed to higher layer, vector(packetBytes)"
vector 32  intersection.tl2.udp  rcvdPk:vector(packetBytes)  ETV
attr interpolationmode  none
attr source  rcvdPk
attr title  "packets received, vector(packetBytes)"
vector 33  intersection.tl2.udp  passedUpPk:vector(count)  ETV
attr interpolationmode  none
attr title  "packets passed up, vector(count)"
vector 26  intersection.tl2.sinkApp  rcvdPk:vector(packetBytes)  ETV
attr interpolationmode  none
attr source  rcvdPk
attr title  "packets received, vector(packetBytes)"
vector 27  intersection.tl2.sinkApp  endToEndDelay:vector  ETV
attr interpolationmode  none
attr source  messageAge(rcvdPk)
attr title  "end-to-end delay, vector"
attr unit  s
vector 131  intersection.cn.controlNodeSink3  rcvdPk:vector(packetBytes)  ETV
attr interpolationmode  none
attr source  rcvdPk
attr title  "packets received, vector(packetBytes)"
vector 132  intersection.cn.controlNodeSink3  endToEndDelay:vector  ETV
attr interpolationmode  none
attr source  messageAge(rcvdPk)
attr title  "end-to-end delay, vector"
attr unit  s
vector 129  intersection.cn.controlNodeSink2  rcvdPk:vector(packetBytes)  ETV
attr interpolationmode  none
attr source  rcvdPk
attr title  "packets received, vector(packetBytes)"
vector 130  intersection.cn.controlNodeSink2  endToEndDelay:vector  ETV
attr interpolationmode  none
attr source  messageAge(rcvdPk)
attr title  "end-to-end delay, vector"
attr unit  s
0	167	0.000384454618	0
0	2036	5.000384454618	0
0	3905	10.000384454618	0
0	5774	15.000384454618	0
0	7643	20.000384454618	0
0	9512	25.000384454618	0
0	11381	30.000384454618	0
0	13250	35.000384454618	0
0	15119	40.000384454618	0
0	16988	45.000384454618	0
0	18857	50.000384454618	0
0	20726	55.000384454618	0
0	22595	60.000384454618	0
0	24464	65.000384454618	0
0	26333	70.000384454618	0
0	28202	75.000384454618	0
0	30071	80.000384454618	0
0	31940	85.000384454618	0
0	33809	90.000384454618	0
0	35678	95.000384454618	0
0	37553	100.000384454618	0
0	39437	105.000384454618	0
0	41321	110.000384454618	0
0	43205	115.000384454618	0
0	45089	120.000384454618	0
0	46973	125.000384454618	0
0	48857	130.000384454618	0
0	50741	135.000384454618	0
0	52625	140.000384454618	0
0	54509	145.000384454618	0
0	56393	150.000384454618	0
0	58277	155.000384454618	0
0	60161	160.000384454618	0
0	62045	165.000384454618	0
0	63929	170.000384454618	0
0	65813	175.000384454618	0
0	67697	180.000384454618	0
0	69581	185.000384454618	0
0	71465	190.000384454618	0
0	73349	195.000384454618	0
0	75233	200.000384454618	0
0	77117	205.000384454618	0
0	79001	210.000384454618	0
0	80885	215.000384454618	0
0	82769	220.000384454618	0
0	84653	225.000384454618	0
0	86537	230.000384454618	0
0	88421	235.000384454618	0
0	90305	240.000384454618	0
0	92189	245.000384454618	0
0	94073	250.000384454618	0
0	95957	255.000384454618	0
0	97841	260.000384454618	0
0	99725	265.000384454618	0
0	101609	270.000384454618	0
0	103493	275.000384454618	0
0	105377	280.000384454618	0
0	107261	285.000384454618	0
0	109145	290.000384454618	0
0	111029	295.000384454618	0
1	167	0.000384454618	0.000384454618
1	2036	5.000384454618	0.000384454618
1	3905	10.000384454618	0.000384454618
1	5774	15.000384454618	0.000384454618
1	7643	20.000384454618	0.000384454618
1	9512	25.000384454618	0.000384454618
1	11381	30.000384454618	0.000384454618
1	13250	35.000384454618	0.000384454618
1	15119	40.000384454618	0.000384454618
1	16988	45.000384454618	0.000384454618
1	18857	50.000384454618	0.000384454618
1	20726	55.000384454618	0.000384454618
1	22595	60.000384454618	0.000384454618
1	24464	65.000384454618	0.000384454618
1	26333	70.000384454618	0.000384454618
1	28202	75.000384454618	0.000384454618
1	30071	80.000384454618	0.000384454618
1	31940	85.000384454618	0.000384454618
1	33809	90.000384454618	0.000384454618
1	35678	95.000384454618	0.000384454618
1	37553	100.000384454618	0.000384454618
1	39437	105.000384454618	0.000384454618
1	41321	110.000384454618	0.000384454618
1	43205	115.000384454618	0.000384454618
1	45089	120.000384454618	0.000384454618
1	46973	125.000384454618	0.000384454618
1	48857	130.000384454618	0.000384454618
1	50741	135.000384454618	0.000384454618
1	52625	140.000384454618	0.000384454618
1	54509	145.000384454618	0.000384454618
1	56393	150.000384454618	0.000384454618
1	58277	155.000384454618	0.000384454618
1	60161	160.000384454618	0.000384454618
1	62045	165.000384454618	0.000384454618
1	63929	170.000384454618	0.000384454618
1	65813	175.000384454618	0.000384454618
1	67697	180.000384454618	0.000384454618
1	69581	185.000384454618	0.000384454618
1	71465	190.000384454618	0.000384454618
1	73349	195.000384454618	0.000384454618
1	75233	200.000384454618	0.000384454618
1	77117	205.000384454618	0.000384454618
1	79001	210.000384454618	0.000384454618
1	80885	215.000384454618	0.000384454618
1	82769	220.000384454618	0.000384454618
1	84653	225.000384454618	0.000384454618
1	86537	230.000384454618	0.000384454618
1	88421	235.000384454618	0.000384454618
1	90305	240.000384454618	0.000384454618
1	92189	245.000384454618	0.000384454618
1	94073	250.000384454618	0.000384454618
1	95957	255.000384454618	0.000384454618
1	97841	260.000384454618	0.000384454618
1	99725	265.000384454618	0.000384454618
1	101609	270.000384454618	0.000384454618
1	103493	275.000384454618	0.000384454618
1	105377	280.000384454618	0.000384454618
1	107261	285.000384454618	0.000384454618
1	109145	290.000384454618	0.000384454618
1	111029	295.000384454618	0.000384454618
3	20	0	0
3	199	0.2	0
3	271	0.4	0
3	343	0.6	0
3	415	0.8	0
3	487	1	0
3	559	1.2	0
3	631	1.4	0
3	703	1.6	0
3	775	1.8	0
3	847	2	0
3	919	2.2	0
3	991	2.4	0
3	1063	2.6	0
3	1135	2.8	0
3	1207	3	0
3	1279	3.2	0
3	1351	3.4	0
3	1423	3.6	0
3	1495	3.8	0
3	1567	4	0
3	1639	4.2	0
3	1711	4.4	0
3	1783	4.6	0
3	1855	4.8	0
3	1930	5	0
3	2068	5.2	0
3	2140	5.4	0
3	2212	5.6	0
3	2284	5.8	0
3	2356	6	0
3	2428	6.2	0
3	2500	6.4	0
3	2572	6.6	0
3	2644	6.8	0
3	2716	7	0
3	2788	7.2	0
3	2860	7.4	0
3	2932	7.6	0
3	3004	7.8	0
3	3076	8	0
3	3148	8.2	0
3	3220	8.4	0
3	3292	8.6	0
3	3364	8.8	0
3	3436	9	0
3	3508	9.2	0
3	3580	9.4	0
3	3652	9.6	0
3	3724	9.8	0
3	3799	10	0
3	3937	10.2	0
3	4009	10.4	0
3	4081	10.6	0
3	4153	10.8	0
3	4225	11	0
3	4297	11.2	0
3	4369	11.4	0
3	4441	11.6	0
3	4513	11.8	0
3	4585	12	0
3	4657	12.2	0
3	4729	12.4	0
3	4801	12.6	0
3	4873	12.8	0
3	4945	13	0
3	5017	13.2	0
3	5089	13.4	0
3	5161	13.6	0
3	5233	13.8	0
3	5305	14	0
3	5377	14.2	0
3	5449	14.4	0
3	5521	14.6	0
3	5593	14.8	0
3	5668	15	0
3	5806	15.2	0
3	5878	15.4	0
3	5950	15.6	0
3	6022	15.8	0
3	6094	16	0
3	6166	16.2	0
3	6238	16.4	0
3	6310	16.6	0
3	6382	16.8	0
3	6454	17	0
3	6526	17.2	0
3	6598	17.4	0
3	6670	17.6	0
3	6742	17.8	0
3	6814	18	0
3	6886	18.2	0
3	6958	18.4	0
3	7030	18.6	0
3	7102	18.8	0
3	7174	19	0
3	7246	19.2	0
3	7318	19.4	0
3	7390	19.6	0
3	7462	19.8	0
3	7537	20	0
3	7675	20.2	0
3	7747	20.4	0
3	7819	20.6	0
3	7891	20.8	0
3	7963	21	0
3	8035	21.2	0
3	8107	21.4	0
3	8179	21.6	0
3	8251	21.8	0
3	8323	22	0
3	8395	22.2	0
3	8467	22.4	0
3	8539	22.6	0
3	8611	22.8	0
3	8683	23	0
3	8755	23.2	0
3	8827	23.4	0
3	8899	23.6	0
3	8971	23.8	0
3	9043	24	0
3	9115	24.2	0
3	9187	24.4	0
3	9259	24.6	0
3	9331	24.8	0
3	9406	25	0
3	9544	25.2	0
3	9616	25.4	0
3	9688	25.6	0
3	9760	25.8	0
3	9832	26	0
3	9904	26.2	0
3	9976	26.4	0
3	10048	26.6	0
3	10120	26.8	0
3	10192	27	0
3	10264	27.2	0
3	10336	27.4	0
3	10408	27.6	0
3	10480	27.8	0
3	10552	28	0
3	10624	28.2	0
3	10696	28.4	0
3	10768	28.6	0
3	10840	28.8	0
3	10912	29	0
3	10984	29.2	0
3	11056	29.4	0
3	11128	29.6	0
3	11200	29.8	0
3	11275	30	0
3	11413	30.2	0
3	11485	30.4	0
3	11557	30.6	0
3	11629	30.8	0
3	11701	31	0
3	11773	31.2	0
3	11845	31.4	0
3	11917	31.6	0
3	11989	31.8	0
3	12061	32	0
3	12133	32.2	0
3	12205	32.4	0
3	12277	32.6	0
3	12349	32.8	0
3	12421	33	0
3	12493	33.2	0
3	12565	33.4	0
3	12637	33.6	0
3	12709	33.8	0
3	12781	34	0
3	12853	34.2	0
3	12925	34.4	0
3	12997	34.6	0
3	13069	34.8	0
3	13144	35	0
3	13282	35.2	0
3	13354	35.4	0
3	13426	35.6	0
3	13498	35.8	0
3	13570	36	0
3	13642	36.2	0
3	13714	36.4	0
3	13786	36.6	0
3	13858	36.8	0
3	13930	37	0
3	14002	37.2	0
3	14074	37.4	0
3	14146	37.6	0
3	14218	37.8	0
3	14290	38	0
3	14362	38.2	0
3	14434	38.4	0
3	14506	38.6	0
3	14578	38.8	0
3	14650	39	0
3	14722	39.2	0
3	14794	39.4	0
3	14866	39.6	0
3	14938	39.8	0
3	15013	40	0
3	15151	40.2	0
3	15223	40.4	0
3	15295	40.6	0
3	15367	40.8	0
3	15439	41	0
3	15511	41.2	0
3	15583	41.4	0
3	15655	41.6	0
3	15727	41.8	0
3	15799	42	0
3	15871	42.2	0
3	15943	42.4	0
3	16015	42.6	0
3	16087	42.8	0
3	16159	43	0
3	16231	43.2	0
3	16303	43.4	0
3	16375	43.6	0
3	16447	43.8	0
3	16519	44	0
3	16591	44.2	0
3	16663	44.4	0
3	16735	44.6	0
3	16807	44.8	0
3	16882	45	0
3	17020	45.2	0
3	17092	45.4	0
3	17164	45.6	0
3	17236	45.8	0
3	17308	46	0
3	17380	46.2	0
3	17452	46.4	0
3	17524	46.6	0
3	17596	46.8	0
3	17668	47	0
3	17740	47.2	0
3	17812	47.4	0
3	17884	47.6	0
3	17956	47.8	0
3	18028	48	0
3	18100	48.2	0
3	18172	48.4	0
3	18244	48.6	0
3	18316	48.8	0
3	18388	49	0
3	18460	49.2	0
3	18532	49.4	0
3	18604	49.6	0
3	18676	49.8	0
3	18751	50	0
3	18889	50.2	0
3	18961	50.4	0
3	19033	50.6	0
3	19105	50.8	0
3	19177	51	0
3	19249	51.2	0
3	19321	51.4	0
3	19393	51.6	0
3	19465	51.8	0
3	19537	52	0
3	19609	52.2	0
3	19681	52.4	0
3	19753	52.6	0
3	19825	52.8	0
3	19897	53	0
3	19969	53.2	0
3	20041	53.4	0
3	20113	53.6	0
3	20185	53.8	0
3	20257	54	0
3	20329	54.2	0
3	20401	54.4	0
3	20473	54.6	0
3	20545	54.8	0
3	20620	55	0
3	20758	55.2	0
3	20830	55.4	0
3	20902	55.6	0
3	20974	55.8	0
3	21046	56	0
3	21118	56.2	0
3	21190	56.4	0
3	21262	56.6	0
3	21334	56.8	0
3	21406	57	0
3	21478	57.2	0
3	21550	57.4	0
3	21622	57.6	0
3	21694	57.8	0
3	21766	58	0
3	21838	58.2	0
3	21910	58.4	0
3	21982	58.6	0
3	22054	58.8	0
3	22126	59	0
3	22198	59.2	0
3	22270	59.4	0
3	22342	59.6	0
3	22414	59.8	0
3	22489	60	0
3	22627	60.2	0
3	22699	60.4	0
3	22771	60.6	0
3	22843	60.8	0
3	22915	61	0
3	22987	61.2	0
3	23059	61.4	0
3	23131	61.6	0
3	23203	61.8	0
3	23275	62	0
3	23347	62.2	0
3	23419	62.4	0
3	23491	62.6	0
3	23563	62.8	0
3	23635	63	0
3	23707	63.2	0
3	23779	63.4	0
3	23851	63.6	0
3	23923	63.8	0
3	23995	64	0
3	24067	64.2	0
3	24139	64.4	0
3	24211	64.6	0
3	24283	64.8	0
3	24358	65	0
3	24496	65.2	0
3	24568	65.4	0
3	24640	65.6	0
3	24712	65.8	0
3	24784	66	0
3	24856	66.2	0
3	24928	66.4	0
3	25000	66.6	0
3	25072	66.8	0
3	25144	67	0
3	25216	67.2	0
3	25288	67.4	0
3	25360	67.6	0
3	25432	67.8	0
3	25504	68	0
3	25576	68.2	0
3	25648	68.4	0
3	25720	68.6	0
3	25792	68.8	0
3	25864	69	0
3	25936	69.2	0
3	26008	69.4	0
3	26080	69.6	0
3	26152	69.8	0
3	26227	70	0
3	26365	70.2	0
3	26437	70.4	0
3	26509	70.6	0
3	26581	70.8	0
3	26653	71	0
3	26725	71.2	0
3	26797	71.4	0
3	26869	71.6	0
3	26941	71.8	0
3	27013	72	0
3	27085	72.2	0
3	27157	72.4	0
3	27229	72.6	0
3	27301	72.8	0
3	27373	73	0
3	27445	73.2	0
3	27517	73.4	0
3	27589	73.6	0
3	27661	73.8	0
3	27733	74	0
3	27805	74.2	0
3	27877	74.4	0
3	27949	74.6	0
3	28021	74.8	0
3	28096	75	0
3	28234	75.2	0
3	28306	75.4	0
3	28378	75.6	0
3	28450	75.8	0
3	28522	76	0
3	28594	76.2	0
3	28666	76.4	0
3	28738	76.6	0
3	28810	76.8	0
3	28882	77	0
3	28954	77.2	0
3	29026	77.4	0
3	29098	77.6	0
3	29170	77.8	0
3	29242	78	0
3	29314	78.2	0
3	29386	78.4	0
3	29458	78.6	0
3	29530	78.8	0
3	29602	79	0
3	29674	79.2	0
3	29746	79.4	0
3	29818	79.6	0
3	29890	79.8	0
3	29965	80	0
3	30103	80.2	0
3	30175	80.4	0
3	30247	80.6	0
3	30319	80.8	0
3	30391	81	0
3	30463	81.2	0
3	30535	81.4	0
3	30607	81.6	0
3	30679	81.8	0
3	30751	82	0
3	30823	82.2	0
3	30895	82.4	0
3	30967	82.6	0
3	31039	82.8	0
3	31111	83	0
3	31183	83.2	0
3	31255	83.4	0
3	31327	83.6	0
3	31399	83.8	0
3	31471	84	0
3	31543	84.2	0
3	31615	84.4	0
3	31687	84.6	0
3	31759	84.8	0
3	31834	85	0
3	31972	85.2	0
3	32044	85.4	0
3	32116	85.6	0
3	32188	85.8	0
3	32260	86	0
3	32332	86.2	0
3	32404	86.4	0
3	32476	86.6	0
3	32548	86.8	0
3	32620	87	0
3	32692	87.2	0
3	32764	87.4	0
3	32836	87.6	0
3	32908	87.8	0
3	32980	88	0
3	33052	88.2	0
3	33124	88.4	0
3	33196	88.6	0
3	33268	88.8	0
3	33340	89	0
3	33412	89.2	0
3	33484	89.4	0
3	33556	89.6	0
3	33628	89.8	0
3	33703	90	0
3	33841	90.2	0
3	33913	90.4	0
3	33985	90.6	0
3	34057	90.8	0
3	34129	91	0
3	34201	91.2	0
3	34273	91.4	0
3	34345	91.6	0
3	34417	91.8	0
3	34489	92	0
3	34561	92.2	0
3	34633	92.4	0
3	34705	92.6	0
3	34777	92.8	0
3	34849	93	0
3	34921	93.2	0
3	34993	93.4	0
3	35065	93.6	0
3	35137	93.8	0
3	35209	94	0
3	35281	94.2	0
3	35353	94.4	0
3	35425	94.6	0
3	35497	94.8	0
3	35572	95	0
3	35710	95.2	0
3	35782	95.4	0
3	35854	95.6	0
3	35926	95.8	0
3	35998	96	0
3	36070	96.2	0
3	36142	96.4	0
3	36214	96.6	0
3	36286	96.8	0
3	36358	97	0
3	36430	97.2	0
3	36502	97.4	0
3	36574	97.6	0
3	36646	97.8	0
3	36718	98	0
3	36790	98.2	0
3	36862	98.4	0
3	36934	98.6	0
3	37006	98.8	0
3	37078	99	0
3	37150	99.2	0
3	37222	99.4	0
3	37294	99.6	0
3	37366	99.8	0
3	37445	100	0
3	37585	100.2	0
3	37657	100.4	0
3	37729	100.6	0
3	37801	100.8	0
3	37874	101	0
3	37948	101.2	0
3	38020	101.4	0
3	38092	101.6	0
3	38164	101.8	0
3	38237	102	0
3	38311	102.2	0
3	38383	102.4	0
3	38455	102.6	0
3	38527	102.8	0
3	38600	103	0
3	38674	103.2	0
3	38746	103.4	0
3	38818	103.6	0
3	38890	103.8	0
3	38963	104	0
3	39037	104.2	0
3	39109	104.4	0
3	39181	104.6	0
3	39253	104.8	0
3	39329	105	0
3	39469	105.2	0
3	39541	105.4	0
3	39613	105.6	0
3	39685	105.8	0
3	39758	106	0
3	39832	106.2	0
3	39904	106.4	0
3	39976	106.6	0
3	40048	106.8	0
3	40121	107	0
3	40195	107.2	0
3	40267	107.4	0
3	40339	107.6	0
3	40411	107.8	0
3	40484	108	0
3	40558	108.2	0
3	40630	108.4	0
3	40702	108.6	0
3	40774	108.8	0
3	40847	109	0
3	40921	109.2	0
3	40993	109.4	0
3	41065	109.6	0
3	41137	109.8	0
3	41213	110	0
3	41353	110.2	0
3	41425	110.4	0
3	41497	110.6	0
3	41569	110.8	0
3	41642	111	0
3	41716	111.2	0
3	41788	111.4	0
3	41860	111.6	0
3	41932	111.8	0
3	42005	112	0
3	42079	112.2	0
3	42151	112.4	0
3	42223	112.6	0
3	42295	112.8	0
3	42368	113	0
3	42442	113.2	0
3	42514	113.4	0
3	42586	113.6	0
3	42658	113.8	0
3	42731	114	0
3	42805	114.2	0
3	42877	114.4	0
3	42949	114.6	0
3	43021	114.8	0
3	43097	115	0
3	43237	115.2	0
3	43309	115.4	0
3	43381	115.6	0
3	43453	115.8	0
3	43526	116	0
3	43600	116.2	0
3	43672	116.4	0
3	43744	116.6	0
3	43816	116.8	0
3	43889	117	0
3	43963	117.2	0
3	44035	117.4	0
3	44107	117.6	0
3	44179	117.8	0
3	44252	118	0
3	44326	118.2	0
3	44398	118.4	0
3	44470	118.6	0
3	44542	118.8	0
3	44615	119	0
3	44689	119.2	0
3	44761	119.4	0
3	44833	119.6	0
3	44905	119.8	0
3	44981	120	0
3	45121	120.2	0
3	45193	120.4	0
3	45265	120.6	0
3	45337	120.8	0
3	45410	121	0
3	45484	121.2	0
3	45556	121.4	0
3	45628	121.6	0
3	45700	121.8	0
3	45773	122	0
3	45847	122.2	0
3	45919	122.4	0
3	45991	122.6	0
3	46063	122.8	0
3	46136	123	0
3	46210	123.2	0
3	46282	123.4	0
3	46354	123.6	0
3	46426	123.8	0
3	46499	124	0
3	46573	124.2	0
3	46645	124.4	0
3	46717	124.6	0
3	46789	124.8	0
3	46865	125	0
3	47005	125.2	0
3	47077	125.4	0
3	47149	125.6	0
3	47221	125.8	0
3	47294	126	0
3	47368	126.2	0
3	47440	126.4	0
3	47512	126.6	0
3	47584	126.8	0
3	47657	127	0
3	47731	127.2	0
3	47803	127.4	0
3	47875	127.6	0
3	47947	127.8	0
3	48020	128	0
3	48094	128.2	0
3	48166	128.4	0
3	48238	128.6	0
3	48310	128.8	0
3	48383	129	0
3	48457	129.2	0
3	48529	129.4	0
3	48601	129.6	0
3	48673	129.8	0
3	48749	130	0
3	48889	130.2	0
3	48961	130.4	0
3	49033	130.6	0
3	49105	130.8	0
3	49178	131	0
3	49252	131.2	0
3	49324	131.4	0
3	49396	131.6	0
3	49468	131.8	0
3	49541	132	0
3	49615	132.2	0
3	49687	132.4	0
3	49759	132.6	0
3	49831	132.8	0
3	49904	133	0
3	49978	133.2	0
3	50050	133.4	0
3	50122	133.6	0
3	50194	133.8	0
3	50267	134	0
3	50341	134.2	0
3	50413	134.4	0
3	50485	134.6	0
3	50557	134.8	0
3	50633	135	0
3	50773	135.2	0
3	50845	135.4	0
3	50917	135.6	0
3	50989	135.8	0
3	51062	136	0
3	51136	136.2	0
3	51208	136.4	0
3	51280	136.6	0
3	51352	136.8	0
3	51425	137	0
3	51499	137.2	0