version 2
run seapp-attacks-0-20160124-17:58:54-9530
attr configname seapp-attacks
attr datetime 20160124-17:58:54
attr experiment seapp-attacks
attr inifile omnetpp.ini
attr iterationvars ""
attr iterationvars2 $repetition=0
attr measurement ""
attr network KIDSNw1
attr processid 9530
attr repetition 0
attr replication #0
attr resultdir results
attr runnumber 0
attr seedset 0

vector 16  KIDSNw1.host1.ppp[0].queue  queueLength:vector  ETV
attr interpolationmode  sample-hold
attr title  "queue length, vector"
vector 17  KIDSNw1.host1.ppp[0].ppp  txState:vector  ETV
attr interpolationmode  sample-hold
attr title  "tx state, vector"
vector 40  KIDSNw1.host2.ppp[0].queue  queueLength:vector  ETV
attr interpolationmode  sample-hold
attr title  "queue length, vector"
vector 41  KIDSNw1.host2.ppp[0].ppp  txState:vector  ETV
attr interpolationmode  sample-hold
attr title  "tx state, vector"
vector 64  KIDSNw1.host3.ppp[0].queue  queueLength:vector  ETV
attr interpolationmode  sample-hold
attr title  "queue length, vector"
vector 65  KIDSNw1.host3.ppp[0].ppp  txState:vector  ETV
attr interpolationmode  sample-hold
attr title  "tx state, vector"
vector 80  KIDSNw1.fhrouter1.ppp[0].queue  queueLength:vector  ETV
attr interpolationmode  sample-hold
attr title  "queue length, vector"
vector 81  KIDSNw1.fhrouter1.ppp[0].ppp  txState:vector  ETV
attr interpolationmode  sample-hold
attr title  "tx state, vector"
vector 91  KIDSNw1.fhrouter1.ppp[1].queue  queueLength:vector  ETV
attr interpolationmode  sample-hold
attr title  "queue length, vector"
vector 92  KIDSNw1.fhrouter1.ppp[1].ppp  txState:vector  ETV
attr interpolationmode  sample-hold
attr title  "tx state, vector"
vector 102  KIDSNw1.fhrouter1.ppp[2].queue  queueLength:vector  ETV
attr interpolationmode  sample-hold
attr title  "queue length, vector"
vector 103  KIDSNw1.fhrouter1.ppp[2].ppp  txState:vector  ETV
attr interpolationmode  sample-hold
attr title  "tx state, vector"
vector 118  KIDSNw1.fhrouter2.ppp[0].queue  queueLength:vector  ETV
attr interpolationmode  sample-hold
attr title  "queue length, vector"
vector 119  KIDSNw1.fhrouter2.ppp[0].ppp  txState:vector  ETV
attr interpolationmode  sample-hold
attr title  "tx state, vector"
vector 129  KIDSNw1.fhrouter2.ppp[1].queue  queueLength:vector  ETV
attr interpolationmode  sample-hold
attr title  "queue length, vector"
vector 130  KIDSNw1.fhrouter2.ppp[1].ppp  txState:vector  ETV
attr interpolationmode  sample-hold
attr title  "tx state, vector"
vector 145  KIDSNw1.irouter.ppp[0].queue  queueLength:vector  ETV
attr interpolationmode  sample-hold
attr title  "queue length, vector"
vector 146  KIDSNw1.irouter.ppp[0].ppp  txState:vector  ETV
attr interpolationmode  sample-hold
attr title  "tx state, vector"
vector 156  KIDSNw1.irouter.ppp[1].queue  queueLength:vector  ETV
attr interpolationmode  sample-hold
attr title  "queue length, vector"
vector 157  KIDSNw1.irouter.ppp[1].ppp  txState:vector  ETV
attr interpolationmode  sample-hold
attr title  "tx state, vector"
vector 172  KIDSNw1.bgrouter3.ppp[0].queue  queueLength:vector  ETV
attr interpolationmode  sample-hold
attr title  "queue length, vector"
vector 173  KIDSNw1.bgrouter3.ppp[0].ppp  txState:vector  ETV
attr interpolationmode  sample-hold
attr title  "tx state, vector"
vector 183  KIDSNw1.bgrouter3.ppp[1].queue  queueLength:vector  ETV
attr interpolationmode  sample-hold
attr title  "queue length, vector"
vector 184  KIDSNw1.bgrouter3.ppp[1].ppp  txState:vector  ETV
attr interpolationmode  sample-hold
attr title  "tx state, vector"
vector 199  KIDSNw1.bgrouter4.ppp[0].queue  queueLength:vector  ETV
attr interpolationmode  sample-hold
attr title  "queue length, vector"
vector 200  KIDSNw1.bgrouter4.ppp[0].ppp  txState:vector  ETV
attr interpolationmode  sample-hold
attr title  "tx state, vector"
vector 210  KIDSNw1.bgrouter4.ppp[1].queue  queueLength:vector  ETV
attr interpolationmode  sample-hold
attr title  "queue length, vector"
vector 211  KIDSNw1.bgrouter4.ppp[1].ppp  txState:vector  ETV
attr interpolationmode  sample-hold
attr title  "tx state, vector"
vector 1  KIDSNw1.host1.udpApp[0]  sentPk:vector(packetBytes)  ETV
attr interpolationmode  none
attr source  sentPk
attr title  "packets sent, vector(packetBytes)"
vector 25  KIDSNw1.host2.udpApp[0]  sentPk:vector(packetBytes)  ETV
attr interpolationmode  none
attr source  sentPk
attr title  "packets sent, vector(packetBytes)"
vector 49  KIDSNw1.host3.udpApp[0]  sentPk:vector(packetBytes)  ETV
attr interpolationmode  none
attr source  sentPk
attr title  "packets sent, vector(packetBytes)"
vector 3  KIDSNw1.host1.udp  sentPk:vector(packetBytes)  ETV
attr interpolationmode  none
attr source  sentPk
attr title  "packets sent, vector(packetBytes)"
vector 27  KIDSNw1.host2.udp  sentPk:vector(packetBytes)  ETV
attr interpolationmode  none
attr source  sentPk
attr title  "packets sent, vector(packetBytes)"
vector 51  KIDSNw1.host3.udp  sentPk:vector(packetBytes)  ETV
attr interpolationmode  none
attr source  sentPk
attr title  "packets sent, vector(packetBytes)"
vector 13  KIDSNw1.host1.ppp[0].queue  rcvdPk:vector(packetBytes)  ETV
attr interpolationmode  none
attr title  "received packets, vector(packetBytes)"
vector 15  KIDSNw1.host1.ppp[0].queue  queueingTime:vector  ETV
attr interpolationmode  none
attr title  "queueing time, vector"
vector 37  KIDSNw1.host2.ppp[0].queue  rcvdPk:vector(packetBytes)  ETV
attr interpolationmode  none
attr title  "received packets, vector(packetBytes)"
vector 39  KIDSNw1.host2.ppp[0].queue  queueingTime:vector  ETV
attr interpolationmode  none
attr title  "queueing time, vector"
vector 61  KIDSNw1.host3.ppp[0].queue  rcvdPk:vector(packetBytes)  ETV
attr interpolationmode  none
attr title  "received packets, vector(packetBytes)"
vector 63  KIDSNw1.host3.ppp[0].queue  queueingTime:vector  ETV
attr interpolationmode  none
attr title  "queueing time, vector"
vector 22  KIDSNw1.host1.ppp[0].ppp  rcvdPkFromHL:vector(packetBytes)  ETV
attr interpolationmode  none
attr source  packetReceivedFromUpper
attr title  "packets received from higher layer, vector(packetBytes)"
vector 18  KIDSNw1.host1.ppp[0].ppp  txPk:vector(packetBytes)  ETV
attr interpolationmode  none
attr source  packetSentToLower
attr title  "packets transmitted, vector(packetBytes)"
vector 46  KIDSNw1.host2.ppp[0].ppp  rcvdPkFromHL:vector(packetBytes)  ETV
attr interpolationmode  none
attr source  packetReceivedFromUpper
attr title  "packets received from higher layer, vector(packetBytes)"
vector 42  KIDSNw1.host2.ppp[0].ppp  txPk:vector(packetBytes)  ETV
attr interpolationmode  none
attr source  packetSentToLower
attr title  "packets transmitted, vector(packetBytes)"
vector 70  KIDSNw1.host3.ppp[0].ppp  rcvdPkFromHL:vector(packetBytes)  ETV
attr interpolationmode  none
attr source  packetReceivedFromUpper
attr title  "packets received from higher layer, vector(packetBytes)"
vector 66  KIDSNw1.host3.ppp[0].ppp  txPk:vector(packetBytes)  ETV
attr interpolationmode  none
attr source  packetSentToLower
attr title  "packets transmitted, vector(packetBytes)"
vector 83  KIDSNw1.fhrouter1.ppp[0].ppp  rxPkOk:vector(packetBytes)  ETV
attr interpolationmode  none
attr source  rxPkOk
attr title  "packets received OK, vector(packetBytes)"
vector 87  KIDSNw1.fhrouter1.ppp[0].ppp  passedUpPk:vector(packetBytes)  ETV
attr interpolationmode  none
attr source  packetSentToUpper
attr title  "packets passed to higher layer, vector(packetBytes)"
vector 88  KIDSNw1.fhrouter1.ppp[1].queue  rcvdPk:vector(packetBytes)  ETV
attr interpolationmode  none
attr title  "received packets, vector(packetBytes)"
vector 90  KIDSNw1.fhrouter1.ppp[1].queue  queueingTime:vector  ETV
attr interpolationmode  none
attr title  "queueing time, vector"
vector 97  KIDSNw1.fhrouter1.ppp[1].ppp  rcvdPkFromHL:vector(packetBytes)  ETV
attr interpolationmode  none
attr source  packetReceivedFromUpper
attr title  "packets received from higher layer, vector(packetBytes)"
vector 93  KIDSNw1.fhrouter1.ppp[1].ppp  txPk:vector(packetBytes)  ETV
attr interpolationmode  none
attr source  packetSentToLower
attr title  "packets transmitted, vector(packetBytes)"
vector 121  KIDSNw1.fhrouter2.ppp[0].ppp  rxPkOk:vector(packetBytes)  ETV
attr interpolationmode  none
attr source  rxPkOk
attr title  "packets received OK, vector(packetBytes)"
vector 125  KIDSNw1.fhrouter2.ppp[0].ppp  passedUpPk:vector(packetBytes)  ETV
attr interpolationmode  none
attr source  packetSentToUpper
attr title  "packets passed to higher layer, vector(packetBytes)"
vector 126  KIDSNw1.fhrouter2.ppp[1].queue  rcvdPk:vector(packetBytes)  ETV
attr interpolationmode  none
attr title  "received packets, vector(packetBytes)"
vector 128  KIDSNw1.fhrouter2.ppp[1].queue  queueingTime:vector  ETV
attr interpolationmode  none
attr title  "queueing time, vector"
vector 135  KIDSNw1.fhrouter2.ppp[1].ppp  rcvdPkFromHL:vector(packetBytes)  ETV
attr interpolationmode  none
attr source  packetReceivedFromUpper
attr title  "packets received from higher layer, vector(packetBytes)"
vector 131  KIDSNw1.fhrouter2.ppp[1].ppp  txPk:vector(packetBytes)  ETV
attr interpolationmode  none
attr source  packetSentToLower
attr title  "packets transmitted, vector(packetBytes)"
vector 213  KIDSNw1.bgrouter4.ppp[1].ppp  rxPkOk:vector(packetBytes)  ETV
attr interpolationmode  none
attr source  rxPkOk
attr title  "packets received OK, vector(packetBytes)"
vector 217  KIDSNw1.bgrouter4.ppp[1].ppp  passedUpPk:vector(packetBytes)  ETV
attr interpolationmode  none
attr source  packetSentToUpper
attr title  "packets passed to higher layer, vector(packetBytes)"
vector 196  KIDSNw1.bgrouter4.ppp[0].queue  rcvdPk:vector(packetBytes)  ETV
attr interpolationmode  none
attr title  "received packets, vector(packetBytes)"
vector 198  KIDSNw1.bgrouter4.ppp[0].queue  queueingTime:vector  ETV
attr interpolationmode  none
attr title  "queueing time, vector"
vector 205  KIDSNw1.bgrouter4.ppp[0].ppp  rcvdPkFromHL:vector(packetBytes)  ETV
attr interpolationmode  none
attr source  packetReceivedFromUpper
attr title  "packets received from higher layer, vector(packetBytes)"
vector 201  KIDSNw1.bgrouter4.ppp[0].ppp  txPk:vector(packetBytes)  ETV
attr interpolationmode  none
attr source  packetSentToLower
attr title  "packets transmitted, vector(packetBytes)"
vector 186  KIDSNw1.bgrouter3.ppp[1].ppp  rxPkOk:vector(packetBytes)  ETV
attr interpolationmode  none
attr source  rxPkOk
attr title  "packets received OK, vector(packetBytes)"
vector 190  KIDSNw1.bgrouter3.ppp[1].ppp  passedUpPk:vector(packetBytes)  ETV
attr interpolationmode  none
attr source  packetSentToUpper
attr title  "packets passed to higher layer, vector(packetBytes)"
vector 169  KIDSNw1.bgrouter3.ppp[0].queue  rcvdPk:vector(packetBytes)  ETV
attr interpolationmode  none
attr title  "received packets, vector(packetBytes)"
vector 171  KIDSNw1.bgrouter3.ppp[0].queue  queueingTime:vector  ETV
attr interpolationmode  none
attr title  "queueing time, vector"
vector 178  KIDSNw1.bgrouter3.ppp[0].ppp  rcvdPkFromHL:vector(packetBytes)  ETV
attr interpolationmode  none
attr source  packetReceivedFromUpper
attr title  "packets received from higher layer, vector(packetBytes)"
vector 174  KIDSNw1.bgrouter3.ppp[0].ppp  txPk:vector(packetBytes)  ETV
attr interpolationmode  none
attr source  packetSentToLower
attr title  "packets transmitted, vector(packetBytes)"
vector 159  KIDSNw1.irouter.ppp[1].ppp  rxPkOk:vector(packetBytes)  ETV
attr interpolationmode  none
attr source  rxPkOk
attr title  "packets received OK, vector(packetBytes)"
vector 163  KIDSNw1.irouter.ppp[1].ppp  passedUpPk:vector(packetBytes)  ETV
attr interpolationmode  none
attr source  packetSentToUpper
attr title  "packets passed to higher layer, vector(packetBytes)"
vector 142  KIDSNw1.irouter.ppp[0].queue  rcvdPk:vector(packetBytes)  ETV
attr interpolationmode  none
attr title  "received packets, vector(packetBytes)"
vector 144  KIDSNw1.irouter.ppp[0].queue  queueingTime:vector  ETV
attr interpolationmode  none
attr title  "queueing time, vector"
vector 151  KIDSNw1.irouter.ppp[0].ppp  rcvdPkFromHL:vector(packetBytes)  ETV
attr interpolationmode  none
attr source  packetReceivedFromUpper
attr title  "packets received from higher layer, vector(packetBytes)"
vector 147  KIDSNw1.irouter.ppp[0].ppp  txPk:vector(packetBytes)  ETV
attr interpolationmode  none
attr source  packetSentToLower
attr title  "packets transmitted, vector(packetBytes)"
vector 94  KIDSNw1.fhrouter1.ppp[1].ppp  rxPkOk:vector(packetBytes)  ETV
attr interpolationmode  none
attr source  rxPkOk
attr title  "packets received OK, vector(packetBytes)"
vector 98  KIDSNw1.fhrouter1.ppp[1].ppp  passedUpPk:vector(packetBytes)  ETV
attr interpolationmode  none
attr source  packetSentToUpper
attr title  "packets passed to higher layer, vector(packetBytes)"
vector 77  KIDSNw1.fhrouter1.ppp[0].queue  rcvdPk:vector(packetBytes)  ETV
attr interpolationmode  none
attr title  "received packets, vector(packetBytes)"
vector 79  KIDSNw1.fhrouter1.ppp[0].queue  queueingTime:vector  ETV
attr interpolationmode  none
attr title  "queueing time, vector"
vector 86  KIDSNw1.fhrouter1.ppp[0].ppp  rcvdPkFromHL:vector(packetBytes)  ETV
attr interpolationmode  none
attr source  packetReceivedFromUpper
attr title  "packets received from higher layer, vector(packetBytes)"
vector 82  KIDSNw1.fhrouter1.ppp[0].ppp  txPk:vector(packetBytes)  ETV
attr interpolationmode  none
attr source  packetSentToLower
attr title  "packets transmitted, vector(packetBytes)"
vector 105  KIDSNw1.fhrouter1.ppp[2].ppp  rxPkOk:vector(packetBytes)  ETV
attr interpolationmode  none
attr source  rxPkOk
attr title  "packets received OK, vector(packetBytes)"
vector 109  KIDSNw1.fhrouter1.ppp[2].ppp  passedUpPk:vector(packetBytes)  ETV
attr interpolationmode  none
attr source  packetSentToUpper
attr title  "packets passed to higher layer, vector(packetBytes)"
vector 43  KIDSNw1.host2.ppp[0].ppp  rxPkOk:vector(packetBytes)  ETV
attr interpolationmode  none
attr source  rxPkOk
attr title  "packets received OK, vector(packetBytes)"
vector 47  KIDSNw1.host2.ppp[0].ppp  passedUpPk:vector(packetBytes)  ETV
attr interpolationmode  none
attr source  packetSentToUpper
attr title  "packets passed to higher layer, vector(packetBytes)"
vector 28  KIDSNw1.host2.udp  rcvdPk:vector(packetBytes)  ETV
attr interpolationmode  none
attr source  rcvdPk
attr title  "packets received, vector(packetBytes)"
vector 29  KIDSNw1.host2.udp  passedUpPk:vector(count)  ETV
attr interpolationmode  none
attr title  "packets passed up, vector(count)"
vector 24  KIDSNw1.host2.udpApp[0]  rcvdPk:vector(packetBytes)  ETV
attr interpolationmode  none
attr source  rcvdPk
attr title  "packets received, vector(packetBytes)"
vector 26  KIDSNw1.host2.udpApp[0]  rcvdPkLifetime:vector  ETV
attr interpolationmode  none
attr source  messageAge(rcvdPk)
attr title  "received packet lifetime, vector"
attr unit  s
vector 19  KIDSNw1.host1.ppp[0].ppp  rxPkOk:vector(packetBytes)  ETV
attr interpolationmode  none
attr source  rxPkOk
attr title  "packets received OK, vector(packetBytes)"
vector 23  KIDSNw1.host1.ppp[0].ppp  passedUpPk:vector(packetBytes)  ETV
attr interpolationmode  none
attr source  packetSentToUpper
attr title  "packets passed to higher layer, vector(packetBytes)"
vector 4  KIDSNw1.host1.udp  rcvdPk:vector(packetBytes)  ETV
attr interpolationmode  none
attr source  rcvdPk
attr title  "packets received, vector(packetBytes)"
vector 5  KIDSNw1.host1.udp  passedUpPk:vector(count)  ETV
attr interpolationmode  none
attr title  "packets passed up, vector(count)"
vector 0  KIDSNw1.host1.udpApp[0]  rcvdPk:vector(packetBytes)  ETV
attr interpolationmode  none
attr source  rcvdPk
attr title  "packets received, vector(packetBytes)"
vector 2  KIDSNw1.host1.udpApp[0]  rcvdPkLifetime:vector  ETV
attr interpolationmode  none
attr source  messageAge(rcvdPk)
attr title  "received packet lifetime, vector"
attr unit  s
0	117	0.202442867572	1250
0	125	0.203470867572	1250
0	214	0.402442867572	1250
0	222	0.403470867572	1250
0	311	0.602442867572	1250
0	319	0.603470867572	1250
0	408	0.802442867572	1250
0	416	0.803470867572	1250
0	505	1.002442867572	1250
0	513	1.003470867572	1250
0	602	1.202442867572	1250
0	610	1.203470867572	1250
0	699	1.402442867572	1250
0	707	1.403470867572	1250
0	796	1.602442867572	1250
0	804	1.603470867572	1250
0	893	1.802442867572	1250
0	901	1.803470867572	1250
0	990	2.002442867572	1250
0	998	2.003470867572	1250
0	1087	2.202442867572	1250
0	1095	2.203470867572	1250
0	1184	2.402442867572	1250
0	1192	2.403470867572	1250
0	1281	2.602442867572	1250
0	1289	2.603470867572	1250
0	1378	2.802442867572	1250
0	1386	2.803470867572	1250
0	1475	3.002442867572	1250
0	1483	3.003470867572	1250
0	1572	3.202442867572	1250
0	1580	3.203470867572	1250
0	1669	3.402442867572	1250
0	1677	3.403470867572	1250
0	1766	3.602442867572	1250
0	1774	3.603470867572	1250
0	1863	3.802442867572	1250
0	1871	3.803470867572	1250
0	1960	4.002442867572	1250
0	1968	4.003470867572	1250
0	2057	4.202442867572	1250
0	2065	4.203470867572	1250
0	2154	4.402442867572	1250
0	2162	4.403470867572	1250
0	2251	4.602442867572	1250
0	2259	4.603470867572	1250
0	2348	4.802442867572	1250
0	2356	4.803470867572	1250
0	2445	5.002442867572	1250
0	2453	5.003470867572	1250
0	2542	5.202442867572	1250
0	2550	5.203470867572	1250
0	2639	5.402442867572	1250
0	2647	5.403470867572	1250
0	2736	5.602442867572	1250
0	2744	5.603470867572	1250
0	2833	5.802442867572	1250
0	2841	5.803470867572	1250
0	2930	6.002442867572	1250
0	2938	6.003470867572	1250
0	3027	6.202442867572	1250
0	3035	6.203470867572	1250
0	3124	6.402442867572	1250
0	3132	6.403470867572	1250
0	3221	6.602442867572	1250
0	3229	6.603470867572	1250
0	3318	6.802442867572	1250
0	3326	6.803470867572	1250
0	3415	7.002442867572	1250
0	3423	7.003470867572	1250
0	3512	7.202442867572	1250
0	3520	7.203470867572	1250
0	3609	7.402442867572	1250
0	3617	7.403470867572	1250
0	3706	7.602442867572	1250
0	3714	7.603470867572	1250
0	3803	7.802442867572	1250
0	3811	7.803470867572	1250
0	3900	8.002442867572	1250
0	3908	8.003470867572	1250
0	3997	8.202442867572	1250
0	4005	8.203470867572	1250
0	4094	8.402442867572	1250
0	4102	8.403470867572	1250
0	4191	8.602442867572	1250
0	4199	8.603470867572	1250
0	4288	8.802442867572	1250
0	4296	8.803470867572	1250
0	4385	9.002442867572	1250
0	4393	9.003470867572	1250
0	4482	9.202442867572	1250
0	4490	9.203470867572	1250
0	4579	9.402442867572	1250
0	4587	9.403470867572	1250
0	4676	9.602442867572	1250
0	4684	9.603470867572	1250
0	4773	9.802442867572	1250
0	4781	9.803470867572	1250
0	4870	10.002442867572	1250
0	4878	10.003470867572	1250
0	4967	10.202442867572	1250
0	4975	10.203470867572	1250
0	5064	10.402442867572	1250
0	5072	10.403470867572	1250
0	5161	10.602442867572	1250
0	5169	10.603470867572	1250
0	5258	10.802442867572	1250
0	5266	10.803470867572	1250
0	5355	11.002442867572	1250
0	5363	11.003470867572	1250
0	5452	11.202442867572	1250
0	5460	11.203470867572	1250
0	5549	11.402442867572	1250
0	5557	11.403470867572	1250
0	5646	11.602442867572	1250
0	5654	11.603470867572	1250
0	5743	11.802442867572	1250
0	5751	11.803470867572	1250
0	5840	12.002442867572	1250
0	5848	12.003470867572	1250
0	5937	12.202442867572	1250
0	5945	12.203470867572	1250
0	6034	12.402442867572	1250
0	6042	12.403470867572	1250
0	6131	12.602442867572	1250
0	6139	12.603470867572	1250
0	6228	12.802442867572	1250
0	6236	12.803470867572	1250
0	6325	13.002442867572	1250
0	6333	13.003470867572	1250
0	6422	13.202442867572	1250
0	6430	13.203470867572	1250
0	6519	13.402442867572	1250
0	6527	13.403470867572	1250
0	6616	13.602442867572	1250
0	6624	13.603470867572	1250
0	6713	13.802442867572	1250
0	6721	13.803470867572	1250
0	6810	14.002442867572	1250
0	6818	14.003470867572	1250
0	6907	14.202442867572	1250
0	6915	14.203470867572	1250
0	7004	14.402442867572	1250
0	7012	14.403470867572	1250
0	7101	14.602442867572	1250
0	7109	14.603470867572	1250
0	7198	14.802442867572	1250
0	7206	14.803470867572	1250
0	7295	15.002442867572	1250
0	7303	15.003470867572	1250
0	7392	15.202442867572	1250
0	7400	15.203470867572	1250
0	7489	15.402442867572	1250
0	7497	15.403470867572	1250
0	7586	15.602442867572	1250
0	7594	15.603470867572	1250
0	7683	15.802442867572	1250
0	7691	15.803470867572	1250
0	7780	16.002442867572	1250
0	7788	16.003470867572	1250
0	7877	16.202442867572	1250
0	7885	16.203470867572	1250
0	7974	16.402442867572	1250
0	7982	16.403470867572	1250
0	8071	16.602442867572	1250
0	8079	16.603470867572	1250
0	8168	16.802442867572	1250
0	8176	16.803470867572	1250
0	8265	17.002442867572	1250
0	8273	17.003470867572	1250
0	8362	17.202442867572	1250
0	8370	17.203470867572	1250
0	8459	17.402442867572	1250
0	8467	17.403470867572	1250
0	8556	17.602442867572	1250
0	8564	17.603470867572	1250
0	8653	17.802442867572	1250
0	8661	17.803470867572	1250
0	8750	18.002442867572	1250
0	8758	18.003470867572	1250
0	8847	18.202442867572	1250
0	8855	18.203470867572	1250
0	8944	18.402442867572	1250
0	8952	18.403470867572	1250
0	9041	18.602442867572	1250
0	9049	18.603470867572	1250
0	9138	18.802442867572	1250
0	9146	18.803470867572	1250
0	9235	19.002442867572	1250
0	9243	19.003470867572	1250
0	9332	19.202442867572	1250
0	9340	19.203470867572	1250
0	9429	19.402442867572	1250
0	9437	19.403470867572	1250
0	9526	19.602442867572	1250
0	9534	19.603470867572	1250
0	9623	19.802442867572	1250
0	9631	19.803470867572	1250
1	23	0.2	1250
1	126	0.4	1250
1	223	0.6	1250
1	320	0.8	1250
1	417	1	1250
1	514	1.2	1250
1	611	1.4	1250
1	708	1.6	1250
1	805	1.8	1250
1	902	2	1250
1	999	2.2	1250
1	1096	2.4	1250
1	1193	2.6	1250
1	1290	2.8	1250
1	1387	3	1250
1	1484	3.2	1250
1	1581	3.4	1250
1	1678	3.6	1250
1	1775	3.8	1250
1	1872	4	1250
1	1969	4.2	1250
1	2066	4.4	1250
1	2163	4.6	1250
1	2260	4.8	1250
1	2357	5	1250
1	2454	5.2	1250
1	2551	5.4	1250
1	2648	5.6	1250
1	2745	5.8	1250
1	2842	6	1250
1	2939	6.2	1250
1	3036	6.4	1250
1	3133	6.6	1250
1	3230	6.8	1250
1	3327	7	1250
1	3424	7.2	1250
1	3521	7.4	1250
1	3618	7.6	1250
1	3715	7.8	1250
1	3812	8	1250
1	3909	8.2	1250
1	4006	8.4	1250
1	4103	8.6	1250
1	4200	8.8	1250
1	4297	9	1250
1	4394	9.2	1250
1	4491	9.4	1250
1	4588	9.6	1250
1	4685	9.8	1250
1	4782	10	1250
1	4879	10.2	1250
1	4976	10.4	1250
1	5073	10.6	1250
1	5170	10.8	1250
1	5267	11	1250
1	5364	11.2	1250
1	5461	11.4	1250
1	5558	11.6	1250
1	5655	11.8	1250
1	5752	12	1250
1	5849	12.2	1250
1	5946	12.4	1250
1	6043	12.6	1250
1	6140	12.8	1250
1	6237	13	1250
1	6334	13.2	1250
1	6431	13.4	1250
1	6528	13.6	1250
1	6625	13.8	1250
1	6722	14	1250
1	6819	14.2	1250
1	6916	14.4	1250
1	7013	14.6	1250
1	7110	14.8	1250
1	7207	15	1250
1	7304	15.2	1250
1	7401	15.4	1250
1	7498	15.6	1250
1	7595	15.8	1250
1	7692	16	1250
1	7789	16.2	1250
1	7886	16.4	1250
1	7983	16.6	1250
1	8080	16.8	1250
1	8177	17	1250
1	8274	17.2	1250
1	8371	17.4	1250
1	8468	17.6	1250
1	8565	17.8	1250
1	8662	18	1250
1	8759	18.2	1250
1	8856	18.4	1250
1	8953	18.6	1250
1	9050	18.8	1250
1	9147	19	1250
1	9244	19.2	1250
1	9341	19.4	1250
1	9438	19.6	1250
1	9535	19.8	1250
1	9633	20	1250
2	117	0.202442867572	0.002442867572
2	125	0.203470867572	0.003470867572
2	214	0.402442867572	0.002442867572
2	222	0.403470867572	0.003470867572
2	311	0.602442867572	0.002442867572
2	319	0.603470867572	0.003470867572
2	408	0.802442867572	0.002442867572
2	416	0.803470867572	0.003470867572
2	505	1.002442867572	0.002442867572
2	513	1.003470867572	0.003470867572
2	602	1.202442867572	0.002442867572
2	610	1.203470867572	0.003470867572
2	699	1.402442867572	0.002442867572
2	707	1.403470867572	0.003470867572
2	796	1.602442867572	0.002442867572
2	804	1.603470867572	0.003470867572
2	893	1.802442867572	0.002442867572
2	901	1.803470867572	0.003470867572
2	990	2.002442867572	0.002442867572
2	998	2.003470867572	0.003470867572
2	1087	2.202442867572	0.002442867572
2	1095	2.203470867572	0.003470867572
2	1184	2.402442867572	0.002442867572
2	1192	2.403470867572	0.003470867572
2	1281	2.602442867572	0.002442867572
2	1289	2.603470867572	0.003470867572
2	1378	2.802442867572	0.002442867572
2	1386	2.803470867572	0.003470867572
2	1475	3.002442867572	0.002442867572
2	1483	3.003470867572	0.003470867572
2	1572	3.202442867572	0.002442867572
2	1580	3.203470867572	0.003470867572
2	1669	3.402442867572	0.002442867572
2	1677	3.403470867572	0.003470867572
2	1766	3.602442867572	0.002442867572
2	1774	3.603470867572	0.003470867572
2	1863	3.802442867572	0.002442867572
2	1871	3.803470867572	0.003470867572
2	1960	4.002442867572	0.002442867572
2	1968	4.003470867572	0.003470867572
2	2057	4.202442867572	0.002442867572
2	2065	4.203470867572	0.003470867572
2	2154	4.402442867572	0.002442867572
2	2162	4.403470867572	0.003470867572
2	2251	4.602442867572	0.002442867572
2	2259	4.603470867572	0.003470867572
2	2348	4.802442867572	0.002442867572
2	2356	4.803470867572	0.003470867572
2	2445	5.002442867572	0.002442867572
2	2453	5.003470867572	0.003470867572
2	2542	5.202442867572	0.002442867572
2	2550	5.203470867572	0.003470867572
2	2639	5.402442867572	0.002442867572
2	2647	5.403470867572	0.003470867572
2	2736	5.602442867572	0.002442867572
2	2744	5.603470867572	0.003470867572
2	2833	5.802442867572	0.002442867572
2	2841	5.803470867572	0.003470867572
2	2930	6.002442867572	0.002442867572
2	2938	6.003470867572	0.003470867572
2	3027	6.202442867572	0.002442867572
2	3035	6.203470867572	0.003470867572
2	3124	6.402442867572	0.002442867572
2	3132	6.403470867572	0.003470867572
2	3221	6.602442867572	0.002442867572
2	3229	6.603470867572	0.003470867572
2	3318	6.802442867572	0.002442867572
2	3326	6.803470867572	0.003470867572
2	3415	7.002442867572	0.002442867572
2	3423	7.003470867572	0.003470867572
2	3512	7.202442867572	0.002442867572
2	3520	7.203470867572	0.003470867572
2	3609	7.402442867572	0.002442867572
2	3617	7.403470867572	0.003470867572
2	3706	7.602442867572	0.002442867572
2	3714	7.603470867572	0.003470867572
2	3803	7.802442867572	0.002442867572
2	3811	7.803470867572	0.003470867572
2	3900	8.002442867572	0.002442867572
2	3908	8.003470867572	0.003470867572
2	3997	8.202442867572	0.002442867572
2	4005	8.203470867572	0.003470867572
2	4094	8.402442867572	0.002442867572
2	4102	8.403470867572	0.003470867572
2	4191	8.602442867572	0.002442867572
2	4199	8.603470867572	0.003470867572
2	4288	8.802442867572	0.002442867572
2	4296	8.803470867572	0.003470867572
2	4385	9.002442867572	0.002442867572
2	4393	9.003470867572	0.003470867572
2	4482	9.202442867572	0.002442867572
2	4490	9.203470867572	0.003470867572
2	4579	9.402442867572	0.002442867572
2	4587	9.403470867572	0.003470867572
2	4676	9.602442867572	0.002442867572
2	4684	9.603470867572	0.003470867572
2	4773	9.802442867572	0.002442867572
2	4781	9.803470867572	0.003470867572
2	4870	10.002442867572	0.002442867572
2	4878	10.003470867572	0.003470867572
2	4967	10.202442867572	0.002442867572
2	4975	10.203470867572	0.003470867572
2	5064	10.402442867572	0.002442867572
2	5072	10.403470867572	0.003470867572
2	5161	10.602442867572	0.002442867572
2	5169	10.603470867572	0.003470867572
2	5258	10.802442867572	0.002442867572
2	5266	10.803470867572	0.003470867572
2	5355	11.002442867572	0.002442867572
2	5363	11.003470867572	0.003470867572
2	5452	11.202442867572	0.002442867572
2	5460	11.203470867572	0.003470867572
2	5549	11.402442867572	0.002442867572
2	5557	11.403470867572	0.003470867572
2	5646	11.602442867572	0.002442867572
2	5654	11.603470867572	0.003470867572
2	5743	11.802442867572	0.002442867572
2	5751	11.803470867572	0.003470867572
2	5840	12.002442867572	0.002442867572
2	5848	12.003470867572	0.003470867572
2	5937	12.202442867572	0.002442867572
2	5945	12.203470867572	0.003470867572
2	6034	12.402442867572	0.002442867572
2	6042	12.403470867572	0.003470867572
2	6131	12.602442867572	0.002442867572
2	6139	12.603470867572	0.003470867572
2	6228	12.802442867572	0.002442867572
2	6236	12.803470867572	0.003470867572
2	6325	13.002442867572	0.002442867572
2	6333	13.003470867572	0.003470867572
2	6422	13.202442867572	0.002442867572
2	6430	13.203470867572	0.003470867572
2	6519	13.402442867572	0.002442867572
2	6527	13.403470867572	0.003470867572
2	6616	13.602442867572	0.002442867572
2	6624	13.603470867572	0.003470867572
2	6713	13.802442867572	0.002442867572
2	6721	13.803470867572	0.003470867572
2	6810	14.002442867572	0.002442867572
2	6818	14.003470867572	0.003470867572
2	6907	14.202442867572	0.002442867572
2	6915	14.203470867572	0.003470867572
2	7004	14.402442867572	0.002442867572
2	7012	14.403470867572	0.003470867572
2	7101	14.602442867572	0.002442867572
2	7109	14.603470867572	0.003470867572
2	7198	14.802442867572	0.002442867572
2	7206	14.803470867572	0.003470867572
2	7295	15.002442867572	0.002442867572
2	7303	15.003470867572	0.003470867572
2	7392	15.202442867572	0.002442867572
2	7400	15.203470867572	0.003470867572
2	7489	15.402442867572	0.002442867572
2	7497	15.403470867572	0.003470867572
2	7586	15.602442867572	0.002442867572
2	7594	15.603470867572	0.003470867572
2	7683	15.802442867572	0.002442867572
2	7691	15.803470867572	0.003470867572
2	7780	16.002442867572	0.002442867572
2	7788	16.003470867572	0.003470867572
2	7877	16.202442867572	0.002442867572
2	7885	16.203470867572	0.003470867572
2	7974	16.402442867572	0.002442867572
2	7982	16.403470867572	0.003470867572
2	8071	16.602442867572	0.002442867572
2	8079	16.603470867572	0.003470867572
2	8168	16.802442867572	0.002442867572
2	8176	16.803470867572	0.003470867572
2	8265	17.002442867572	0.002442867572
2	8273	17.003470867572	0.003470867572
2	8362	17.202442867572	0.002442867572
2	8370	17.203470867572	0.003470867572
2	8459	17.402442867572	0.002442867572
2	8467	17.403470867572	0.003470867572
2	8556	17.602442867572	0.002442867572
2	8564	17.603470867572	0.003470867572
2	8653	17.802442867572	0.002442867572
2	8661	17.803470867572	0.003470867572
2	8750	18.002442867572	0.002442867572
2	8758	18.003470867572	0.003470867572
2	8847	18.202442867572	0.002442867572
2	8855	18.203470867572	0.003470867572
2	8944	18.402442867572	0.002442867572
2	8952	18.403470867572	0.003470867572
2	9041	18.602442867572	0.002442867572
2	9049	18.603470867572	0.003470867572
2	9138	18.802442867572	0.002442867572
2	9146	18.803470867572	0.003470867572