version 2
run inet_inet_2a-0-20150514-20:33:24-3010
attr configname inet_inet_2a
attr datetime 20150514-20:33:24
attr experiment inet_inet_2a
attr inifile omnetpp.ini
attr iterationvars ""
attr iterationvars2 $repetition=0
attr measurement ""
attr network BulkTransfer
attr processid 3010
attr repetition 0
attr replication #0
attr resultdir results
attr runnumber 0
attr seedset 0

vector 11  BulkTransfer.client1.ppp[0].queue  queueLength:vector  ETV
attr interpolationmode  sample-hold
attr title  "queue length, vector"
vector 12  BulkTransfer.client1.ppp[0].ppp  txState:vector  ETV
attr interpolationmode  sample-hold
attr title  "tx state, vector"
vector 22  BulkTransfer.client1.ppp[1].queue  queueLength:vector  ETV
attr interpolationmode  sample-hold
attr title  "queue length, vector"
vector 23  BulkTransfer.client1.ppp[1].ppp  txState:vector  ETV
attr interpolationmode  sample-hold
attr title  "tx state, vector"
vector 41  BulkTransfer.client2.ppp[0].queue  queueLength:vector  ETV
attr interpolationmode  sample-hold
attr title  "queue length, vector"
vector 42  BulkTransfer.client2.ppp[0].ppp  txState:vector  ETV
attr interpolationmode  sample-hold
attr title  "tx state, vector"
vector 60  BulkTransfer.client3.ppp[0].queue  queueLength:vector  ETV
attr interpolationmode  sample-hold
attr title  "queue length, vector"
vector 61  BulkTransfer.client3.ppp[0].ppp  txState:vector  ETV
attr interpolationmode  sample-hold
attr title  "tx state, vector"
vector 79  BulkTransfer.server.ppp[0].queue  queueLength:vector  ETV
attr interpolationmode  sample-hold
attr title  "queue length, vector"
vector 80  BulkTransfer.server.ppp[0].ppp  txState:vector  ETV
attr interpolationmode  sample-hold
attr title  "tx state, vector"
vector 90  BulkTransfer.server.ppp[1].queue  queueLength:vector  ETV
attr interpolationmode  sample-hold
attr title  "queue length, vector"
vector 91  BulkTransfer.server.ppp[1].ppp  txState:vector  ETV
attr interpolationmode  sample-hold
attr title  "tx state, vector"
vector 106  BulkTransfer.router.ppp[0].queue  queueLength:vector  ETV
attr interpolationmode  sample-hold
attr title  "queue length, vector"
vector 107  BulkTransfer.router.ppp[0].ppp  txState:vector  ETV
attr interpolationmode  sample-hold
attr title  "tx state, vector"
vector 117  BulkTransfer.router.ppp[1].queue  queueLength:vector  ETV
attr interpolationmode  sample-hold
attr title  "queue length, vector"
vector 118  BulkTransfer.router.ppp[1].ppp  txState:vector  ETV
attr interpolationmode  sample-hold
attr title  "tx state, vector"
vector 128  BulkTransfer.router.ppp[2].queue  queueLength:vector  ETV
attr interpolationmode  sample-hold
attr title  "queue length, vector"
vector 129  BulkTransfer.router.ppp[2].ppp  txState:vector  ETV
attr interpolationmode  sample-hold
attr title  "tx state, vector"
vector 139  BulkTransfer.router.ppp[3].queue  queueLength:vector  ETV
attr interpolationmode  sample-hold
attr title  "queue length, vector"
vector 140  BulkTransfer.router.ppp[3].ppp  txState:vector  ETV
attr interpolationmode  sample-hold
attr title  "tx state, vector"
vector 186  BulkTransfer.client1.tcp  tcpRcvQueueBytes  ETV
vector 173  BulkTransfer.client1.tcp  "advertised window"  ETV
vector 172  BulkTransfer.client1.tcp  "receive window"  ETV
vector 175  BulkTransfer.client1.tcp  "sent ack"  ETV
vector 210  BulkTransfer.client2.tcp  tcpRcvQueueBytes  ETV
vector 197  BulkTransfer.client2.tcp  "advertised window"  ETV
vector 196  BulkTransfer.client2.tcp  "receive window"  ETV
vector 199  BulkTransfer.client2.tcp  "sent ack"  ETV
vector 234  BulkTransfer.client3.tcp  tcpRcvQueueBytes  ETV
vector 221  BulkTransfer.client3.tcp  "advertised window"  ETV
vector 220  BulkTransfer.client3.tcp  "receive window"  ETV
vector 223  BulkTransfer.client3.tcp  "sent ack"  ETV
vector 19  BulkTransfer.client1.ppp[1].queue  rcvdPk:vector(packetBytes)  ETV
attr interpolationmode  none
attr title  "received packets, vector(packetBytes)"
vector 21  BulkTransfer.client1.ppp[1].queue  queueingTime:vector  ETV
attr interpolationmode  none
attr title  "queueing time, vector"
vector 38  BulkTransfer.client2.ppp[0].queue  rcvdPk:vector(packetBytes)  ETV
attr interpolationmode  none
attr title  "received packets, vector(packetBytes)"
vector 40  BulkTransfer.client2.ppp[0].queue  queueingTime:vector  ETV
attr interpolationmode  none
attr title  "queueing time, vector"
vector 57  BulkTransfer.client3.ppp[0].queue  rcvdPk:vector(packetBytes)  ETV
attr interpolationmode  none
attr title  "received packets, vector(packetBytes)"
vector 59  BulkTransfer.client3.ppp[0].queue  queueingTime:vector  ETV
attr interpolationmode  none
attr title  "queueing time, vector"
vector 28  BulkTransfer.client1.ppp[1].ppp  rcvdPkFromHL:vector(packetBytes)  ETV
attr interpolationmode  none
attr source  packetReceivedFromUpper
attr title  "packets received from higher layer, vector(packetBytes)"
vector 24  BulkTransfer.client1.ppp[1].ppp  txPk:vector(packetBytes)  ETV
attr interpolationmode  none
attr source  packetSentToLower
attr title  "packets transmitted, vector(packetBytes)"
vector 47  BulkTransfer.client2.ppp[0].ppp  rcvdPkFromHL:vector(packetBytes)  ETV
attr interpolationmode  none
attr source  packetReceivedFromUpper
attr title  "packets received from higher layer, vector(packetBytes)"
vector 43  BulkTransfer.client2.ppp[0].ppp  txPk:vector(packetBytes)  ETV
attr interpolationmode  none
attr source  packetSentToLower
attr title  "packets transmitted, vector(packetBytes)"
vector 66  BulkTransfer.client3.ppp[0].ppp  rcvdPkFromHL:vector(packetBytes)  ETV
attr interpolationmode  none
attr source  packetReceivedFromUpper
attr title  "packets received from higher layer, vector(packetBytes)"
vector 62  BulkTransfer.client3.ppp[0].ppp  txPk:vector(packetBytes)  ETV
attr interpolationmode  none
attr source  packetSentToLower
attr title  "packets transmitted, vector(packetBytes)"
vector 82  BulkTransfer.server.ppp[0].ppp  rxPkOk:vector(packetBytes)  ETV
attr interpolationmode  none
attr source  rxPkOk
attr title  "packets received OK, vector(packetBytes)"
vector 86  BulkTransfer.server.ppp[0].ppp  passedUpPk:vector(packetBytes)  ETV
attr interpolationmode  none
attr source  packetSentToUpper
attr title  "packets passed to higher layer, vector(packetBytes)"
vector 120  BulkTransfer.router.ppp[1].ppp  rxPkOk:vector(packetBytes)  ETV
attr interpolationmode  none
attr source  rxPkOk
attr title  "packets received OK, vector(packetBytes)"
vector 124  BulkTransfer.router.ppp[1].ppp  passedUpPk:vector(packetBytes)  ETV
attr interpolationmode  none
attr source  packetSentToUpper
attr title  "packets passed to higher layer, vector(packetBytes)"
vector 131  BulkTransfer.router.ppp[2].ppp  rxPkOk:vector(packetBytes)  ETV
attr interpolationmode  none
attr source  rxPkOk
attr title  "packets received OK, vector(packetBytes)"
vector 135  BulkTransfer.router.ppp[2].ppp  passedUpPk:vector(packetBytes)  ETV
attr interpolationmode  none
attr source  packetSentToUpper
attr title  "packets passed to higher layer, vector(packetBytes)"
vector 152  BulkTransfer.server.tcp  "rcvd seq"  ETV
vector 153  BulkTransfer.server.tcp  "rcvd ack"  ETV
vector 149  BulkTransfer.server.tcp  "advertised window"  ETV
vector 147  BulkTransfer.server.tcp  "send window"  ETV
vector 162  BulkTransfer.server.tcp  tcpRcvQueueBytes  ETV
vector 148  BulkTransfer.server.tcp  "receive window"  ETV
vector 151  BulkTransfer.server.tcp  "sent ack"  ETV
vector 136  BulkTransfer.router.ppp[3].queue  rcvdPk:vector(packetBytes)  ETV
attr interpolationmode  none
attr title  "received packets, vector(packetBytes)"
vector 138  BulkTransfer.router.ppp[3].queue  queueingTime:vector  ETV
attr interpolationmode  none
attr title  "queueing time, vector"
vector 145  BulkTransfer.router.ppp[3].ppp  rcvdPkFromHL:vector(packetBytes)  ETV
attr interpolationmode  none
attr source  packetReceivedFromUpper
attr title  "packets received from higher layer, vector(packetBytes)"
vector 141  BulkTransfer.router.ppp[3].ppp  txPk:vector(packetBytes)  ETV
attr interpolationmode  none
attr source  packetSentToLower
attr title  "packets transmitted, vector(packetBytes)"
vector 76  BulkTransfer.server.ppp[0].queue  rcvdPk:vector(packetBytes)  ETV
attr interpolationmode  none
attr title  "received packets, vector(packetBytes)"
vector 78  BulkTransfer.server.ppp[0].queue  queueingTime:vector  ETV
attr interpolationmode  none
attr title  "queueing time, vector"
vector 85  BulkTransfer.server.ppp[0].ppp  rcvdPkFromHL:vector(packetBytes)  ETV
attr interpolationmode  none
attr source  packetReceivedFromUpper
attr title  "packets received from higher layer, vector(packetBytes)"
vector 81  BulkTransfer.server.ppp[0].ppp  txPk:vector(packetBytes)  ETV
attr interpolationmode  none
attr source  packetSentToLower
attr title  "packets transmitted, vector(packetBytes)"
vector 93  BulkTransfer.server.ppp[1].ppp  rxPkOk:vector(packetBytes)  ETV
attr interpolationmode  none
attr source  rxPkOk
attr title  "packets received OK, vector(packetBytes)"
vector 97  BulkTransfer.server.ppp[1].ppp  passedUpPk:vector(packetBytes)  ETV
attr interpolationmode  none
attr source  packetSentToUpper
attr title  "packets passed to higher layer, vector(packetBytes)"
vector 25  BulkTransfer.client1.ppp[1].ppp  rxPkOk:vector(packetBytes)  ETV
attr interpolationmode  none
attr source  rxPkOk
attr title  "packets received OK, vector(packetBytes)"
vector 29  BulkTransfer.client1.ppp[1].ppp  passedUpPk:vector(packetBytes)  ETV
attr interpolationmode  none
attr source  packetSentToUpper
attr title  "packets passed to higher layer, vector(packetBytes)"
vector 248  BulkTransfer.server.tcp  "rcvd seq"  ETV
vector 249  BulkTransfer.server.tcp  "rcvd ack"  ETV
vector 245  BulkTransfer.server.tcp  "advertised window"  ETV
vector 243  BulkTransfer.server.tcp  "send window"  ETV
vector 258  BulkTransfer.server.tcp  tcpRcvQueueBytes  ETV
vector 244  BulkTransfer.server.tcp  "receive window"  ETV
vector 247  BulkTransfer.server.tcp  "sent ack"  ETV
vector 176  BulkTransfer.client1.tcp  "rcvd seq"  ETV
vector 177  BulkTransfer.client1.tcp  "rcvd ack"  ETV
vector 171  BulkTransfer.client1.tcp  "send window"  ETV
vector 87  BulkTransfer.server.ppp[1].queue  rcvdPk:vector(packetBytes)  ETV
attr interpolationmode  none
attr title  "received packets, vector(packetBytes)"
vector 89  BulkTransfer.server.ppp[1].queue  queueingTime:vector  ETV
attr interpolationmode  none
attr title  "queueing time, vector"
vector 96  BulkTransfer.server.ppp[1].ppp  rcvdPkFromHL:vector(packetBytes)  ETV
attr interpolationmode  none
attr source  packetReceivedFromUpper
attr title  "packets received from higher layer, vector(packetBytes)"
vector 92  BulkTransfer.server.ppp[1].ppp  txPk:vector(packetBytes)  ETV
attr interpolationmode  none
attr source  packetSentToLower
attr title  "packets transmitted, vector(packetBytes)"
vector 154  BulkTransfer.server.tcp  "unacked bytes"  ETV
vector 272  BulkTransfer.server.tcp  "rcvd seq"  ETV
vector 273  BulkTransfer.server.tcp  "rcvd ack"  ETV
vector 269  BulkTransfer.server.tcp  "advertised window"  ETV
vector 267  BulkTransfer.server.tcp  "send window"  ETV
vector 282  BulkTransfer.server.tcp  tcpRcvQueueBytes  ETV
vector 268  BulkTransfer.server.tcp  "receive window"  ETV
vector 271  BulkTransfer.server.tcp  "sent ack"  ETV
vector 142  BulkTransfer.router.ppp[3].ppp  rxPkOk:vector(packetBytes)  ETV
attr interpolationmode  none
attr source  rxPkOk
attr title  "packets received OK, vector(packetBytes)"
vector 146  BulkTransfer.router.ppp[3].ppp  passedUpPk:vector(packetBytes)  ETV
attr interpolationmode  none
attr source  packetSentToUpper
attr title  "packets passed to higher layer, vector(packetBytes)"
vector 114  BulkTransfer.router.ppp[1].queue  rcvdPk:vector(packetBytes)  ETV
attr interpolationmode  none
attr title  "received packets, vector(packetBytes)"
vector 116  BulkTransfer.router.ppp[1].queue  queueingTime:vector  ETV
attr interpolationmode  none
attr title  "queueing time, vector"
vector 123  BulkTransfer.router.ppp[1].ppp  rcvdPkFromHL:vector(packetBytes)  ETV
attr interpolationmode  none
attr source  packetReceivedFromUpper
attr title  "packets received from higher layer, vector(packetBytes)"
vector 119  BulkTransfer.router.ppp[1].ppp  txPk:vector(packetBytes)  ETV
attr interpolationmode  none
attr source  packetSentToLower
attr title  "packets transmitted, vector(packetBytes)"
vector 125  BulkTransfer.router.ppp[2].queue  rcvdPk:vector(packetBytes)  ETV
attr interpolationmode  none
attr title  "received packets, vector(packetBytes)"
vector 127  BulkTransfer.router.ppp[2].queue  queueingTime:vector  ETV
attr interpolationmode  none
attr title  "queueing time, vector"
vector 134  BulkTransfer.router.ppp[2].ppp  rcvdPkFromHL:vector(packetBytes)  ETV
attr interpolationmode  none
attr source  packetReceivedFromUpper
attr title  "packets received from higher layer, vector(packetBytes)"
vector 130  BulkTransfer.router.ppp[2].ppp  txPk:vector(packetBytes)  ETV
attr interpolationmode  none
attr source  packetSentToLower
attr title  "packets transmitted, vector(packetBytes)"
vector 44  BulkTransfer.client2.ppp[0].ppp  rxPkOk:vector(packetBytes)  ETV
attr interpolationmode  none
attr source  rxPkOk
attr title  "packets received OK, vector(packetBytes)"
vector 48  BulkTransfer.client2.ppp[0].ppp  passedUpPk:vector(packetBytes)  ETV
attr interpolationmode  none
attr source  packetSentToUpper
attr title  "packets passed to higher layer, vector(packetBytes)"
vector 200  BulkTransfer.client2.tcp  "rcvd seq"  ETV
vector 201  BulkTransfer.client2.tcp  "rcvd ack"  ETV
vector 195  BulkTransfer.client2.tcp  "send window"  ETV
vector 63  BulkTransfer.client3.ppp[0].ppp  rxPkOk:vector(packetBytes)  ETV
attr interpolationmode  none
attr source  rxPkOk
attr title  "packets received OK, vector(packetBytes)"
vector 67  BulkTransfer.client3.ppp[0].ppp  passedUpPk:vector(packetBytes)  ETV
attr interpolationmode  none
attr source  packetSentToUpper
attr title  "packets passed to higher layer, vector(packetBytes)"
vector 224  BulkTransfer.client3.tcp  "rcvd seq"  ETV
vector 225  BulkTransfer.client3.tcp  "rcvd ack"  ETV
vector 219  BulkTransfer.client3.tcp  "send window"  ETV
vector 250  BulkTransfer.server.tcp  "unacked bytes"  ETV
vector 274  BulkTransfer.server.tcp  "unacked bytes"  ETV
vector 1  BulkTransfer.client1.tcpApp[0]  sentPk:vector(packetBytes)  ETV
attr interpolationmode  none
attr source  sentPk
attr title  "packets sent, vector(packetBytes)"
vector 31  BulkTransfer.client2.tcpApp[0]  sentPk:vector(packetBytes)  ETV
attr interpolationmode  none
attr source  sentPk
attr title  "packets sent, vector(packetBytes)"
vector 50  BulkTransfer.client3.tcpApp[0]  sentPk:vector(packetBytes)  ETV
attr interpolationmode  none
attr source  sentPk
attr title  "packets sent, vector(packetBytes)"
vector 174  BulkTransfer.client1.tcp  "sent seq"  ETV
vector 178  BulkTransfer.client1.tcp  "unacked bytes"  ETV
vector 198  BulkTransfer.client2.tcp  "sent seq"  ETV
vector 202  BulkTransfer.client2.tcp  "unacked bytes"  ETV
vector 222  BulkTransfer.client3.tcp  "sent seq"  ETV
vector 226  BulkTransfer.client3.tcp  "unacked bytes"  ETV
vector 155  BulkTransfer.server.tcp  "rcvd dupAcks"  ETV
vector 68  BulkTransfer.server.tcpApp[0]  rcvdPk:vector(packetBytes)  ETV
attr interpolationmode  none
attr source  rcvdPk
attr title  "packets received, vector(packetBytes)"
vector 70  BulkTransfer.server.tcpApp[0]  endToEndDelay:vector  ETV
attr interpolationmode  none
attr source  messageAge(rcvdPk)
attr title  "end-to-end delay, vector"
attr unit  s
vector 69  BulkTransfer.server.tcpApp[0]  sentPk:vector(packetBytes)  ETV
attr interpolationmode  none
attr source  sentPk
attr title  "packets sent, vector(packetBytes)"
vector 150  BulkTransfer.server.tcp  "sent seq"  ETV
vector 190  BulkTransfer.client1.tcp  "measured RTT"  ETV
vector 191  BulkTransfer.client1.tcp  "smoothed RTT"  ETV
vector 192  BulkTransfer.client1.tcp  RTTVAR  ETV
vector 193  BulkTransfer.client1.tcp  RTO  ETV
vector 188  BulkTransfer.client1.tcp  cwnd  ETV
vector 179  BulkTransfer.client1.tcp  "rcvd dupAcks"  ETV
vector 251  BulkTransfer.server.tcp  "rcvd dupAcks"  ETV
vector 246  BulkTransfer.server.tcp  "sent seq"  ETV
vector 0  BulkTransfer.client1.tcpApp[0]  rcvdPk:vector(packetBytes)  ETV
attr interpolationmode  none
attr source  rcvdPk
attr title  "packets received, vector(packetBytes)"
vector 2  BulkTransfer.client1.tcpApp[0]  endToEndDelay:vector  ETV
attr interpolationmode  none
attr source  messageAge(rcvdPk)
attr title  "end-to-end delay, vector"
attr unit  s
vector 214  BulkTransfer.client2.tcp  "measured RTT"  ETV
vector 215  BulkTransfer.client2.tcp  "smoothed RTT"  ETV
vector 216  BulkTransfer.client2.tcp  RTTVAR  ETV
vector 217  BulkTransfer.client2.tcp  RTO  ETV
vector 212  BulkTransfer.client2.tcp  cwnd  ETV
vector 203  BulkTransfer.client2.tcp  "rcvd dupAcks"  ETV
vector 275  BulkTransfer.server.tcp  "rcvd dupAcks"  ETV
vector 270  BulkTransfer.server.tcp  "sent seq"  ETV
vector 166  BulkTransfer.server.tcp  "measured RTT"  ETV
vector 167  BulkTransfer.server.tcp  "smoothed RTT"  ETV
vector 168  BulkTransfer.server.tcp  RTTVAR  ETV
vector 169  BulkTransfer.server.tcp  RTO  ETV
vector 164  BulkTransfer.server.tcp  cwnd  ETV
vector 238  BulkTransfer.client3.tcp  "measured RTT"  ETV
vector 239  BulkTransfer.client3.tcp  "smoothed RTT"  ETV
vector 240  BulkTransfer.client3.tcp  RTTVAR  ETV
vector 241  BulkTransfer.client3.tcp  RTO  ETV
vector 236  BulkTransfer.client3.tcp  cwnd  ETV
vector 227  BulkTransfer.client3.tcp  "rcvd dupAcks"  ETV
vector 30  BulkTransfer.client2.tcpApp[0]  rcvdPk:vector(packetBytes)  ETV
attr interpolationmode  none
attr source  rcvdPk
attr title  "packets received, vector(packetBytes)"
vector 32  BulkTransfer.client2.tcpApp[0]  endToEndDelay:vector  ETV
attr interpolationmode  none
attr source  messageAge(rcvdPk)
attr title  "end-to-end delay, vector"
attr unit  s
vector 49  BulkTransfer.client3.tcpApp[0]  rcvdPk:vector(packetBytes)  ETV
attr interpolationmode  none
attr source  rcvdPk
attr title  "packets received, vector(packetBytes)"
vector 51  BulkTransfer.client3.tcpApp[0]  endToEndDelay:vector  ETV
attr interpolationmode  none
attr source  messageAge(rcvdPk)
attr title  "end-to-end delay, vector"
attr unit  s
vector 262  BulkTransfer.server.tcp  "measured RTT"  ETV
vector 263  BulkTransfer.server.tcp  "smoothed RTT"  ETV
vector 264  BulkTransfer.server.tcp  RTTVAR  ETV
vector 265  BulkTransfer.server.tcp  RTO  ETV
vector 260  BulkTransfer.server.tcp  cwnd  ETV
vector 286  BulkTransfer.server.tcp  "measured RTT"  ETV
vector 287  BulkTransfer.server.tcp  "smoothed RTT"  ETV
vector 288  BulkTransfer.server.tcp  RTTVAR  ETV
vector 289  BulkTransfer.server.tcp  RTO  ETV
vector 284  BulkTransfer.server.tcp  cwnd  ETV
0	296	1.1243602	1452
0	497	1.1487204	1452
0	589	1.1607124	1452
0	896	1.1970644	1452
1	183	1.1	10000000
2	296	1.1243602	0
2	497	1.1487204	0
2	589	1.1607124	0
2	896	1.1970644	0
11	0	0	0
12	0	0	0
19	39	1	44
19	91	1.0008162	40
19	210	1.1	1492
19	261	1.1123682	1492
19	262	1.1123682	1492
19	299	1.1243602	40
19	346	1.1247364	1492
19	347	1.1247364	1492
19	429	1.1367284	1492
19	430	1.1367284	1492
19	500	1.1487204	40
19	595	1.1607124	40
19	628	1.1610884	1492
19	629	1.1610884	1492
19	655	1.1614644	1492
19	656	1.1614644	1492
19	727	1.1730804	1492
19	728	1.1730804	1492
19	818	1.1850724	1492
19	819	1.1850724	1492
19	899	1.1970644	40
21	39	1	0
21	91	1.0008162	0
21	210	1.1	0
21	261	1.1123682	0
21	286	1.1243602	0.011992
21	367	1.1363522	0.011992
21	391	1.1367282	0.0119918
21	464	1.1487202	0.0239838
21	557	1.1607122	0.0239838
21	683	1.1727042	0.0359758
21	774	1.1846962	0.0359758
21	790	1.1850722	0.0243598
21	843	1.1854482	0.0243598
21	920	1.1974402	0.0363518
22	0	0	0
22	262	1.1123682	1
22	286	1.1243602	0
22	299	1.1243602	1
22	346	1.1247364	2
22	347	1.1247364	3
22	367	1.1363522	2
22	391	1.1367282	1
22	429	1.1367284	2
22	430	1.1367284	3
22	464	1.1487202	2
22	500	1.1487204	3
22	557	1.1607122	2
22	595	1.1607124	3
22	628	1.1610884	4
22	629	1.1610884	5
22	655	1.1614644	6
22	656	1.1614644	7
22	683	1.1727042	6
22	727	1.1730804	7
22	728	1.1730804	8
22	774	1.1846962	7
22	790	1.1850722	6
22	818	1.1850724	7
22	819	1.1850724	8
22	843	1.1854482	7
22	899	1.1970644	8
22	920	1.1974402	7
23	0	0	0
23	42	1	1
23	45	1.000408	0
23	93	1.0008162	1
23	94	1.0011922	0
23	213	1.1	1
23	216	1.111992	0
23	263	1.1123682	1
23	286	1.1243602	0
23	289	1.1243602	1
23	367	1.1363522	0
23	369	1.1363522	1
23	391	1.1367282	0
23	393	1.1367282	1
23	464	1.1487202	0
23	466	1.1487202	1
23	557	1.1607122	0
23	558	1.1607122	1
23	683	1.1727042	0
23	684	1.1727042	1
23	774	1.1846962	0
23	775	1.1846962	1
23	790	1.1850722	0
23	791	1.1850722	1
23	843	1.1854482	0
23	844	1.1854482	1
23	920	1.1974402	0
23	921	1.1974402	1
24	42	1	51
24	93	1.0008162	47
24	213	1.1	1499
24	263	1.1123682	1499
24	289	1.1243602	1499
24	369	1.1363522	47
24	393	1.1367282	1499
24	466	1.1487202	1499
24	558	1.1607122	1499
24	684	1.1727042	1499
24	775	1.1846962	47
24	791	1.1850722	47
24	844	1.1854482	1499
24	921	1.1974402	1499
25	73	1.0008162	51
25	250	1.1123682	47
25	285	1.1243602	1499
25	323	1.1247364	47
25	417	1.1367284	47
25	488	1.1487204	1499
25	575	1.1607124	1499
25	616	1.1610884	47
25	643	1.1614644	47
25	716	1.1730804	47
25	807	1.1850724	47
25	889	1.1970644	1499
25	994	1.2090564	1499
28	42	1	44
28	93	1.0008162	40
28	213	1.1	1492
28	263	1.1123682	1492
28	289	1.1243602	1492
28	369	1.1363522	40
28	393	1.1367282	1492
28	466	1.1487202	1492
28	558	1.1607122	1492
28	684	1.1727042	1492
28	775	1.1846962	40
28	791	1.1850722	40
28	844	1.1854482	1492
28	921	1.1974402	1492
29	73	1.0008162	44
29	250	1.1123682	40
29	285	1.1243602	1492
29	323	1.1247364	40
29	417	1.1367284	40
29	488	1.1487204	1492
29	575	1.1607124	1492
29	616	1.1610884	40
29	643	1.1614644	40
29	716	1.1730804	40
29	807	1.1850724	40
29	889	1.1970644	1492
29	994	1.2090564	1492
30	460	1.1483444	1452
30	916	1.1970648	1452
31	184	1.1	10000000
32	460	1.1483444	0
32	916	1.1970648	0
38	40	1	44
38	138	1.0016324	40
38	211	1.1	1492
38	344	1.1247364	1492
38	345	1.1247364	1492
38	463	1.1483444	40
38	554	1.1494728	1492
38	555	1.1494728	1492
38	676	1.1614648	1492
38	677	1.1614648	1492
38	919	1.1970648	40
40	40	1	0
40	138	1.0016324	0
40	211	1.1	0
40	344	1.1247364	0
40	416	1.1367284	0.011992
40	489	1.1487204	0.000376
40	554	1.1494728	0
40	663	1.1614648	0.011992
40	753	1.1734568	0.011992
40	873	1.1854488	0.023984
40	958	1.1974408	0.000376
41	0	0	0
41	345	1.1247364	1
41	416	1.1367284	0
41	463	1.1483444	1
41	489	1.1487204	0
41	555	1.1494728	1
41	663	1.1614648	0
41	676	1.1614648	1
41	677	1.1614648	2
41	753	1.1734568	1
41	873	1.1854488	0
41	919	1.1970648	1
41	958	1.1974408	0
42	0	0	0
42	43	1	1
42	46	1.000408	0
42	139	1.0016324	1
42	140	1.0020084	0
42	214	1.1	1
42	217	1.111992	0
42	348	1.1247364	1
42	416	1.1367284	0
42	418	1.1367284	1
42	489	1.1487204	0
42	491	1.1487204	1
42	523	1.1490964	0
42	556	1.1494728	1
42	663	1.1614648	0
42	665	1.1614648	1
42	753	1.1734568	0
42	755	1.1734568	1
42	873	1.1854488	0
42	875	1.1854488	1
42	958	1.1974408	0
42	960	1.1974408	1
42	973	1.1978168	0
43	43	1	51
43	139	1.0016324	47
43	214	1.1	1499
43	348	1.1247364	1499
43	418	1.1367284	1499
43	491	1.1487204	47
43	556	1.1494728	1499
43	665	1.1614648	1499
43	755	1.1734568	1499
43	875	1.1854488	1499
43	960	1.1974408	47
44	128	1.0016324	51
44	322	1.1247364	47
44	453	1.1483444	1499
44	543	1.1494728	47
44	664	1.1614648	47
44	909	1.1970648	1499
47	43	1	44
47	139	1.0016324	40
47	214	1.1	1492
47	348	1.1247364	1492
47	418	1.1367284	1492
47	491	1.1487204	40
47	556	1.1494728	1492
47	665	1.1614648	1492
47	755	1.1734568	1492
47	875	1.1854488	1492
47	960	1.1974408	40
48	128	1.0016324	44
48	322	1.1247364	40
48	453	1.1483444	1492
48	543	1.1494728	40
48	664	1.1614648	40
48	909	1.1970648	1492
49	591	1.1607124	1452
50	185	1.1	10000000
51	591	1.1607124	0
57	41	1	44
57	158	1.0020404	40
57	212	1.1	1492
57	449	1.1371044	1492
57	450	1.1371044	1492
57	596	1.1607124	40
57	766	1.1734568	1492
57	767	1.1734568	1492
57	984	1.1978168	1492
57	985	1.1978168	1492
59	41	1	0
59	158	1.0020404	0
59	212	1.1	0
59	449	1.1371044	0
59	522	1.1490964	0.011992
59	615	1.1610884	0.000376
59	766	1.1734568	0
59	874	1.1854488	0.011992
59	984	1.1978168	0
60	0	0	0
60	450	1.1371044	1
60	522	1.1490964	0
60	596	1.1607124	1
60	615	1.1610884	0
60	767	1.1734568	1
60	874	1.1854488	0
60	985	1.1978168	1
61	0	0	0
61	44	1	1
61	47	1.000408	0
61	159	1.0020404	1
61	168	1.0024164	0
61	215	1.1	1
61	218	1.111992	0
61	451	1.1371044	1
61	522	1.1490964	0
61	524	1.1490964	1
61	615	1.1610884	0
61	617	1.1610884	1
61	644	1.1614644	0
61	768	1.1734568	1
61	874	1.1854488	0
61	876	1.1854488	1
61	959	1.1974408	0
61	986	1.1978168	1
62	44	1	51
62	159	1.0020404	47
62	215	1.1	1499
62	451	1.1371044	1499
62	524	1.1490964	1499
62	617	1.1610884	47
62	768	1.1734568	1499
62	876	1.1854488	1499
62	986	1.1978168	1499
63	148	1.0020404	51
63	438	1.1371044	47
63	576	1.1607124	1499
63	754	1.1734568	47
63	972	1.1978168	47
66	44	1	44
66	159	1.0020404	40
66	215	1.1	1492
66	451	1.1371044	1492
66	524	1.1490964	1492
66	617	1.1610884	40
66	768	1.1734568	1492
66	876	1.1854488	1492
66	986	1.1978168	1492
67	148	1.0020404	44
67	438	1.1371044	40
67	576	1.1607124	1492
67	754	1.1734568	40
67	972	1.1978168	40
68	237	1.1119921	1452
68	273	1.1239842	1452
68	313	1.1243603	1452
68	357	1.1359762	1452
68	384	1.1363523	1452
68	482	1.1487203	1452
68	515	1.1487206	1452
68	569	1.1607123	1452
68	606	1.1607126	1452
68	692	1.1727043	1452
68	708	1.1727046	1452
68	783	1.1846963	1452
68	831	1.1850726	1452
68	929	1.1974403	1452
68	946	1.1974406	1452
69	237	1.1119921	2904
69	273	1.1239842	2904
69	313	1.1243603	2904
69	357	1.1359762	2904
69	384	1.1363523	2904
69	482	1.1487203	2904
69	515	1.1487206	2904
69	569	1.1607123	2904
69	606	1.1607126	2904
69	692	1.1727043	2904
69	708	1.1727046	2904
69	783	1.1846963	2904
69	831	1.1850726	2904
69	929	1.1974403	2904
69	946	1.1974406	2904
70	237	1.1119921	0
70	273	1.1239842	0
70	313	1.1243603	0
70	357	1.1359762	0
70	384	1.1363523	0
70	482	1.1487203	0
70	515	1.1487206	0
70	569	1.1607123	0
70	606	1.1607126	0
70	692	1.1727043	0
70	708	1.1727046	0
70	783	1.1846963	0
70	831	1.1850726	0
70	929	1.1974403	0
70	946	1.1974406	0
76	67	1.0004081	44
76	242	1.1119921	40
76	247	1.1119921	1492
76	318	1.1243603	40
76	389	1.1363523	40
76	413	1.1367283	1492
76	414	1.1367283	1492
76	487	1.1487203	40
76	574	1.1607123	40
76	697	1.1727043	40
76	788	1.1846963	40
76	804	1.1850723	1492
76	805	1.1850723	1492
76	856	1.1854483	1492
76	857	1.1854483	1492
76	934	1.1974403	40
78	67	1.0004081	0
78	242	1.1119921	0
78	248	1.1123681	0.000376
78	318	1.1243603	0
78	389	1.1363523	0
78	413	1.1367283	0
78	469	1.1487203	0.011992
78	560	1.1607123	0.011992
78	613	1.1610883	0.000376
78	697	1.1727043	0
78	788	1.1846963	0
78	804	1.1850723	0
78	887	1.1970643	0.011992
78	992	1.2090563	0.023608
79	0	0	0
79	247	1.1119921	1
79	248	1.1123681	0
79	414	1.1367283	1
79	469	1.1487203	0
79	487	1.1487203	1
79	560	1.1607123	0
79	574	1.1607123	1
79	613	1.1610883	0
79	805	1.1850723	1
79	856	1.1854483	2
79	857	1.1854483	3
79	887	1.1970643	2
79	934	1.1974403	3
79	992	1.2090563	2
80	0	0	0
80	68	1.0004081	1
80	70	1.0008161	0
80	244	1.1119921	1
80	248	1.1123681	0
80	249	1.1123681	1
80	284	1.1243601	0
80	319	1.1243603	1
80	321	1.1247363	0
80	390	1.1363523	1
80	397	1.1367283	0
80	415	1.1367283	1
80	469	1.1487203	0
80	472	1.1487203	1
80	560	1.1607123	0
80	563	1.1607123	1
80	613	1.1610883	0
80	614	1.1610883	1
80	642	1.1614643	0
80	698	1.1727043	1
80	715	1.1730803	0
80	789	1.1846963	1
80	793	1.1850723	0
80	806	1.1850723	1
80	887	1.1970643	0
80	888	1.1970643	1
80	992	1.2090563	0
80	993	1.2090563	1
81	68	1.0004081	51
81	244	1.1119921	47
81	249	1.1123681	1499
81	319	1.1243603	47
81	390	1.1363523	47
81	415	1.1367283	1499
81	472	1.1487203	1499
81	563	1.1607123	47
81	614	1.1610883	47
81	698	1.1727043	47
81	789	1.1846963	47
81	806	1.1850723	1499
81	888	1.1970643	1499
81	993	1.2090563	1499
82	48	1.0004081	51
82	95	1.0011923	47
82	219	1.1119921	1499
82	300	1.1243603	1499
82	371	1.1363523	1499
82	395	1.1367283	47
82	467	1.1487203	1499
82	559	1.1607123	1499
82	685	1.1727043	1499
82	776	1.1846963	1499
82	792	1.1850723	47
82	845	1.1854483	47
82	922	1.1974403	1499
85	68	1.0004081	44
85	244	1.1119921	40
85	249	1.1123681	1492
85	319	1.1243603	40
85	390	1.1363523	40
85	415	1.1367283	1492
85	472	1.1487203	1492
85	563	1.1607123	40
85	614	1.1610883	40
85	698	1.1727043	40
85	789	1.1846963	40
85	806	1.1850723	1492
85	888	1.1970643	1492
85	993	1.2090563	1492
86	48	1.0004081	44
86	95	1.0011923	40
86	219	1.1119921	1492
86	300	1.1243603	1492
86	371	1.1363523	1492
86	395	1.1367283	40
86	467	1.1487203	1492
86	559	1.1607123	1492
86	685	1.1727043	1492
86	776	1.1846963	1492
86	792	1.1850723	40
86	845	1.1854483	40
86	922	1.1974403	1492
87	90	1.0008162	44
87	112	1.0012242	44
87	278	1.1239842	40
87	283	1.1239842	1492
87	362	1.1359762	40
87	366	1.1359762	1492
87	520	1.1487206	40
87	611	1.1607126	40
87	713	1.1727046	40
87	743	1.1730806	1492
87	744	1.1730806	1492
87	836	1.1850726	40
87	871	1.1854486	1492
87	872	1.1854486	1492
87	951	1.1974406	40
89	90	1.0008162	0
89	112	1.0012242	0
89	278	1.1239842	0
89	287	1.1243602	0.000376
89	368	1.1363522	0.000376
89	392	1.1367282	0.000752
89	520	1.1487206	0
89	611	1.1607126	0
89	713	1.1727046	0
89	743	1.1730806	0
89	823	1.1850726	0.011992
89	900	1.1970646	0.011992
89	938	1.1974406	0.011992
90	0	0	0
90	283	1.1239842	1
90	287	1.1243602	0
90	362	1.1359762	1
90	366	1.1359762	2
90	368	1.1363522	1
90	392	1.1367282	0
90	744	1.1730806	1
90	823	1.1850726	0
90	836	1.1850726	1
90	871	1.1854486	2
90	872	1.1854486	3
90	900	1.1970646	2
90	938	1.1974406	1
90	951	1.1974406	2
91	0	0	0
91	92	1.0008162	1
91	104	1.0012242	0
91	113	1.0012242	1
91	120	1.0016322	0
91	280	1.1239842	1
91	287	1.1243602	0
91	290	1.1243602	1
91	368	1.1363522	0
91	370	1.1363522	1
91	392	1.1367282	0
91	394	1.1367282	1
91	465	1.1487202	0
91	521	1.1487206	1
91	535	1.1490966	0
91	612	1.1607126	1
91	635	1.1610886	0
91	714	1.1727046	1