version 2
run General-0-20161107-11:50:08-18825
attr configname General
attr datetime 20161107-11:50:08
attr experiment General
attr inifile omnetpp.ini
attr iterationvars ""
attr iterationvars2 $repetition=0
attr measurement ""
attr network Topo
attr processid 18825
attr repetition 0
attr replication #0
attr resultdir results
attr runnumber 0
attr seedset 0

vector 141  Topo.s1.tcp  tcpRcvQueueBytes  ETV
vector 128  Topo.s1.tcp  "advertised window"  ETV
vector 127  Topo.s1.tcp  "receive window"  ETV
vector 130  Topo.s1.tcp  "sent ack"  ETV
vector 74  Topo.s1.networkLayer.arp  sentReq:vector  ETV
attr title  "ARP request sent, vector"
vector 85  Topo.s1.eth[0].encap  encapPk:vector(packetBytes)  ETV
attr interpolationmode  none
attr source  encapPk
attr title  "packets encapsulated, vector(packetBytes)"
vector 81  Topo.s1.eth[0].mac  rxPkFromHL:vector(packetBytes)  ETV
attr interpolationmode  none
attr source  rxPkFromHL
attr title  "packet bytes from higher layer, vector(packetBytes)"
vector 76  Topo.s1.eth[0].mac  txPk:vector(packetBytes)  ETV
attr interpolationmode  none
attr source  txPk
attr title  "packets transmitted, vector(packetBytes)"
vector 91  Topo.controller.eth[0].mac  rxPkOk:vector(packetBytes)  ETV
attr interpolationmode  none
attr source  rxPkOk
attr title  "packets received OK, vector(packetBytes)"
vector 92  Topo.controller.eth[0].mac  passedUpPk:vector(packetBytes)  ETV
attr interpolationmode  none
attr source  packetSentToUpper
attr title  "packets passed to higher layer, vector(packetBytes)"
vector 100  Topo.controller.eth[0].encap  decapPk:vector(packetBytes)  ETV
attr interpolationmode  none
attr source  decapPk
attr title  "packets decapsulated, vector(packetBytes)"
vector 89  Topo.controller.networkLayer.arp  sentReply:vector  ETV
attr title  "ARP replies sent, vector"
vector 99  Topo.controller.eth[0].encap  encapPk:vector(packetBytes)  ETV
attr interpolationmode  none
attr source  encapPk
attr title  "packets encapsulated, vector(packetBytes)"
vector 95  Topo.controller.eth[0].mac  rxPkFromHL:vector(packetBytes)  ETV
attr interpolationmode  none
attr source  rxPkFromHL
attr title  "packet bytes from higher layer, vector(packetBytes)"
vector 90  Topo.controller.eth[0].mac  txPk:vector(packetBytes)  ETV
attr interpolationmode  none
attr source  txPk
attr title  "packets transmitted, vector(packetBytes)"
vector 77  Topo.s1.eth[0].mac  rxPkOk:vector(packetBytes)  ETV
attr interpolationmode  none
attr source  rxPkOk
attr title  "packets received OK, vector(packetBytes)"
vector 78  Topo.s1.eth[0].mac  passedUpPk:vector(packetBytes)  ETV
attr interpolationmode  none
attr source  packetSentToUpper
attr title  "packets passed to higher layer, vector(packetBytes)"
vector 86  Topo.s1.eth[0].encap  decapPk:vector(packetBytes)  ETV
attr interpolationmode  none
attr source  decapPk
attr title  "packets decapsulated, vector(packetBytes)"
vector 107  Topo.controller.tcp  "rcvd seq"  ETV
vector 108  Topo.controller.tcp  "rcvd ack"  ETV
vector 104  Topo.controller.tcp  "advertised window"  ETV
vector 102  Topo.controller.tcp  "send window"  ETV
vector 117  Topo.controller.tcp  tcpRcvQueueBytes  ETV
vector 103  Topo.controller.tcp  "receive window"  ETV
vector 106  Topo.controller.tcp  "sent ack"  ETV
vector 131  Topo.s1.tcp  "rcvd seq"  ETV
vector 132  Topo.s1.tcp  "rcvd ack"  ETV
vector 126  Topo.s1.tcp  "send window"  ETV
vector 109  Topo.controller.tcp  "unacked bytes"  ETV
vector 105  Topo.controller.tcp  "sent seq"  ETV
vector 134  Topo.s1.tcp  "rcvd dupAcks"  ETV
vector 129  Topo.s1.tcp  "sent seq"  ETV
vector 133  Topo.s1.tcp  "unacked bytes"  ETV
vector 121  Topo.controller.tcp  "measured RTT"  ETV
vector 122  Topo.controller.tcp  "smoothed RTT"  ETV
vector 123  Topo.controller.tcp  RTTVAR  ETV
vector 124  Topo.controller.tcp  RTO  ETV
vector 119  Topo.controller.tcp  cwnd  ETV
vector 110  Topo.controller.tcp  "rcvd dupAcks"  ETV
vector 145  Topo.s1.tcp  "measured RTT"  ETV
vector 146  Topo.s1.tcp  "smoothed RTT"  ETV
vector 147  Topo.s1.tcp  RTTVAR  ETV
vector 148  Topo.s1.tcp  RTO  ETV
vector 143  Topo.s1.tcp  cwnd  ETV
vector 1  Topo.client.udpApp[0]  sentPk:vector(packetBytes)  ETV
attr interpolationmode  none
attr source  sentPk
attr title  "packets sent, vector(packetBytes)"
vector 3  Topo.client.udp  sentPk:vector(packetBytes)  ETV
attr interpolationmode  none
attr source  sentPk
attr title  "packets sent, vector(packetBytes)"
vector 4  Topo.client.udp  sentPk:vector(count)  ETV
attr interpolationmode  none
attr source  sentPk
attr title  "packets sent, vector(count)"
vector 9  Topo.client.networkLayer.arp  sentReq:vector  ETV
attr title  "ARP request sent, vector"
vector 23  Topo.client.eth[0].encap  encapPk:vector(packetBytes)  ETV
attr interpolationmode  none
attr source  encapPk
attr title  "packets encapsulated, vector(packetBytes)"
vector 19  Topo.client.eth[0].mac  rxPkFromHL:vector(packetBytes)  ETV
attr interpolationmode  none
attr source  rxPkFromHL
attr title  "packet bytes from higher layer, vector(packetBytes)"
vector 14  Topo.client.eth[0].mac  txPk:vector(packetBytes)  ETV
attr interpolationmode  none
attr source  txPk
attr title  "packets transmitted, vector(packetBytes)"
vector 53  Topo.s1.etherMAC[0]  rxPkOk:vector(packetBytes)  ETV
attr interpolationmode  none
attr source  rxPkOk
attr title  "packets received OK, vector(packetBytes)"
vector 54  Topo.s1.etherMAC[0]  passedUpPk:vector(packetBytes)  ETV
attr interpolationmode  none
attr source  packetSentToUpper
attr title  "packets passed to higher layer, vector(packetBytes)"
vector 68  Topo.s1.etherMAC[1]  rxPkFromHL:vector(packetBytes)  ETV
attr interpolationmode  none
attr source  rxPkFromHL
attr title  "packet bytes from higher layer, vector(packetBytes)"
vector 63  Topo.s1.etherMAC[1]  txPk:vector(packetBytes)  ETV
attr interpolationmode  none
attr source  txPk
attr title  "packets transmitted, vector(packetBytes)"
vector 41  Topo.server.eth[0].mac  rxPkOk:vector(packetBytes)  ETV
attr interpolationmode  none
attr source  rxPkOk
attr title  "packets received OK, vector(packetBytes)"
vector 42  Topo.server.eth[0].mac  passedUpPk:vector(packetBytes)  ETV
attr interpolationmode  none
attr source  packetSentToUpper
attr title  "packets passed to higher layer, vector(packetBytes)"
vector 50  Topo.server.eth[0].encap  decapPk:vector(packetBytes)  ETV
attr interpolationmode  none
attr source  decapPk
attr title  "packets decapsulated, vector(packetBytes)"
vector 36  Topo.server.networkLayer.arp  sentReply:vector  ETV
attr title  "ARP replies sent, vector"
vector 49  Topo.server.eth[0].encap  encapPk:vector(packetBytes)  ETV
attr interpolationmode  none
attr source  encapPk
attr title  "packets encapsulated, vector(packetBytes)"
vector 45  Topo.server.eth[0].mac  rxPkFromHL:vector(packetBytes)  ETV
attr interpolationmode  none
attr source  rxPkFromHL
attr title  "packet bytes from higher layer, vector(packetBytes)"
vector 40  Topo.server.eth[0].mac  txPk:vector(packetBytes)  ETV
attr interpolationmode  none
attr source  txPk
attr title  "packets transmitted, vector(packetBytes)"
vector 64  Topo.s1.etherMAC[1]  rxPkOk:vector(packetBytes)  ETV
attr interpolationmode  none
attr source  rxPkOk
attr title  "packets received OK, vector(packetBytes)"
vector 65  Topo.s1.etherMAC[1]  passedUpPk:vector(packetBytes)  ETV
attr interpolationmode  none
attr source  packetSentToUpper
attr title  "packets passed to higher layer, vector(packetBytes)"
vector 57  Topo.s1.etherMAC[0]  rxPkFromHL:vector(packetBytes)  ETV
attr interpolationmode  none
attr source  rxPkFromHL
attr title  "packet bytes from higher layer, vector(packetBytes)"
vector 52  Topo.s1.etherMAC[0]  txPk:vector(packetBytes)  ETV
attr interpolationmode  none
attr source  txPk
attr title  "packets transmitted, vector(packetBytes)"
vector 15  Topo.client.eth[0].mac  rxPkOk:vector(packetBytes)  ETV
attr interpolationmode  none
attr source  rxPkOk
attr title  "packets received OK, vector(packetBytes)"
vector 16  Topo.client.eth[0].mac  passedUpPk:vector(packetBytes)  ETV
attr interpolationmode  none
attr source  packetSentToUpper
attr title  "packets passed to higher layer, vector(packetBytes)"
vector 24  Topo.client.eth[0].encap  decapPk:vector(packetBytes)  ETV
attr interpolationmode  none
attr source  decapPk
attr title  "packets decapsulated, vector(packetBytes)"
vector 31  Topo.server.udp  rcvdPk:vector(packetBytes)  ETV
attr interpolationmode  none
attr source  rcvdPk
attr title  "packets received, vector(packetBytes)"
vector 32  Topo.server.udp  passedUpPk:vector(count)  ETV
attr interpolationmode  none
attr title  "packets passed up, vector(count)"
vector 26  Topo.server.udpApp[0]  rcvdPk:vector(packetBytes)  ETV
attr interpolationmode  none
attr source  rcvdPk
attr title  "packets received, vector(packetBytes)"
vector 27  Topo.server.udpApp[0]  rcvdPk:vector(count)  ETV
attr interpolationmode  none
attr source  rcvdPk
attr title  "packets received, vector(count)"
vector 28  Topo.server.udpApp[0]  rcvdAppPkt:vector  ETV
attr interpolationmode  none
attr source  rcvdAppPkt
attr title  "packets received during sec, vector"
1	111	0.1	1250
1	412	0.2	1250
1	571	0.3	1250
1	730	0.4	1250
1	889	0.5	1250
1	1048	0.6	1250
1	1207	0.7	1250
1	1366	0.8	1250
1	1525	0.9	1250
1	1684	1	1250
1	1843	1.1	1250
1	2002	1.2	1250
1	2161	1.3	1250
1	2320	1.4	1250
1	2479	1.5	1250
1	2638	1.6	1250
1	2797	1.7	1250
1	2956	1.8	1250
1	3115	1.9	1250
1	3274	2	1250
1	3433	2.1	1250
1	3592	2.2	1250
1	3751	2.3	1250
1	3910	2.4	1250
1	4069	2.5	1250
1	4228	2.6	1250
1	4387	2.7	1250
1	4546	2.8	1250
1	4705	2.9	1250
1	4864	3	1250
1	5023	3.1	1250
1	5182	3.2	1250
1	5341	3.3	1250
1	5500	3.4	1250
1	5659	3.5	1250
1	5818	3.6	1250
1	5977	3.7	1250
1	6136	3.8	1250
1	6295	3.9	1250
1	6454	4	1250
1	6613	4.1	1250
1	6772	4.2	1250
1	6931	4.3	1250
1	7090	4.4	1250
1	7249	4.5	1250
1	7408	4.6	1250
1	7567	4.7	1250
1	7726	4.8	1250
1	7885	4.9	1250
1	8044	5	1250
1	8203	5.1	1250
1	8362	5.2	1250
1	8521	5.3	1250
1	8680	5.4	1250
1	8839	5.5	1250
1	8998	5.6	1250
1	9157	5.7	1250
1	9316	5.8	1250
1	9475	5.9	1250
1	9634	6	1250
1	9793	6.1	1250
1	9952	6.2	1250
1	10111	6.3	1250
1	10270	6.4	1250
1	10429	6.5	1250
1	10588	6.6	1250
1	10747	6.7	1250
1	10906	6.8	1250
1	11065	6.9	1250
1	11224	7	1250
1	11383	7.1	1250
1	11542	7.2	1250
1	11701	7.3	1250
1	11860	7.4	1250
1	12019	7.5	1250
1	12178	7.6	1250
1	12337	7.7	1250
1	12496	7.8	1250
1	12655	7.9	1250
1	12814	8	1250
1	12973	8.1	1250
1	13132	8.2	1250
1	13291	8.3	1250
1	13450	8.4	1250
1	13609	8.5	1250
1	13768	8.6	1250
1	13927	8.7	1250
1	14086	8.8	1250
1	14245	8.9	1250
1	14404	9	1250
1	14563	9.1	1250
1	14722	9.2	1250
1	14881	9.3	1250
1	15040	9.4	1250
1	15199	9.5	1250
1	15358	9.6	1250
1	15517	9.7	1250
1	15676	9.8	1250
1	15835	9.9	1250
1	15994	10	1250
1	16153	10.1	1250
1	16312	10.2	1250
3	115	0.1	1258
3	414	0.2	1258
3	573	0.3	1258
3	732	0.4	1258
3	891	0.5	1258
3	1050	0.6	1258
3	1209	0.7	1258
3	1368	0.8	1258
3	1527	0.9	1258
3	1686	1	1258
3	1845	1.1	1258
3	2004	1.2	1258
3	2163	1.3	1258
3	2322	1.4	1258
3	2481	1.5	1258
3	2640	1.6	1258
3	2799	1.7	1258
3	2958	1.8	1258
3	3117	1.9	1258
3	3276	2	1258
3	3435	2.1	1258
3	3594	2.2	1258
3	3753	2.3	1258
3	3912	2.4	1258
3	4071	2.5	1258
3	4230	2.6	1258
3	4389	2.7	1258
3	4548	2.8	1258
3	4707	2.9	1258
3	4866	3	1258
3	5025	3.1	1258
3	5184	3.2	1258
3	5343	3.3	1258
3	5502	3.4	1258
3	5661	3.5	1258
3	5820	3.6	1258
3	5979	3.7	1258
3	6138	3.8	1258
3	6297	3.9	1258
3	6456	4	1258
3	6615	4.1	1258
3	6774	4.2	1258
3	6933	4.3	1258
3	7092	4.4	1258
3	7251	4.5	1258
3	7410	4.6	1258
3	7569	4.7	1258
3	7728	4.8	1258
3	7887	4.9	1258
3	8046	5	1258
3	8205	5.1	1258
3	8364	5.2	1258
3	8523	5.3	1258
3	8682	5.4	1258
3	8841	5.5	1258
3	9000	5.6	1258
3	9159	5.7	1258
3	9318	5.8	1258
3	9477	5.9	1258
3	9636	6	1258
3	9795	6.1	1258
3	9954	6.2	1258
3	10113	6.3	1258
3	10272	6.4	1258
3	10431	6.5	1258
3	10590	6.6	1258
3	10749	6.7	1258
3	10908	6.8	1258
3	11067	6.9	1258
3	11226	7	1258
3	11385	7.1	1258
3	11544	7.2	1258
3	11703	7.3	1258
3	11862	7.4	1258
3	12021	7.5	1258
3	12180	7.6	1258
3	12339	7.7	1258
3	12498	7.8	1258
3	12657	7.9	1258
3	12816	8	1258
3	12975	8.1	1258
3	13134	8.2	1258
3	13293	8.3	1258
3	13452	8.4	1258
3	13611	8.5	1258
3	13770	8.6	1258
3	13929	8.7	1258
3	14088	8.8	1258
3	14247	8.9	1258
3	14406	9	1258
3	14565	9.1	1258
3	14724	9.2	1258
3	14883	9.3	1258
3	15042	9.4	1258
3	15201	9.5	1258
3	15360	9.6	1258
3	15519	9.7	1258
3	15678	9.8	1258
3	15837	9.9	1258
3	15996	10	1258
3	16155	10.1	1258
3	16314	10.2	1258
4	115	0.1	1
4	414	0.2	2
4	573	0.3	3
4	732	0.4	4
4	891	0.5	5
4	1050	0.6	6
4	1209	0.7	7
4	1368	0.8	8
4	1527	0.9	9
4	1686	1	10
4	1845	1.1	11
4	2004	1.2	12
4	2163	1.3	13
4	2322	1.4	14
4	2481	1.5	15
4	2640	1.6	16
4	2799	1.7	17
4	2958	1.8	18
4	3117	1.9	19
4	3276	2	20
4	3435	2.1	21
4	3594	2.2	22
4	3753	2.3	23
4	3912	2.4	24
4	4071	2.5	25
4	4230	2.6	26
4	4389	2.7	27
4	4548	2.8	28
4	4707	2.9	29
4	4866	3	30
4	5025	3.1	31
4	5184	3.2	32
4	5343	3.3	33
4	5502	3.4	34
4	5661	3.5	35
4	5820	3.6	36
4	5979	3.7	37
4	6138	3.8	38
4	6297	3.9	39
4	6456	4	40
4	6615	4.1	41
4	6774	4.2	42
4	6933	4.3	43
4	7092	4.4	44
4	7251	4.5	45
4	7410	4.6	46
4	7569	4.7	47
4	7728	4.8	48
4	7887	4.9	49
4	8046	5	50
4	8205	5.1	51
4	8364	5.2	52
4	8523	5.3	53
4	8682	5.4	54
4	8841	5.5	55
4	9000	5.6	56
4	9159	5.7	57
4	9318	5.8	58
4	9477	5.9	59
4	9636	6	60
4	9795	6.1	61
4	9954	6.2	62
4	10113	6.3	63
4	10272	6.4	64
4	10431	6.5	65
4	10590	6.6	66
4	10749	6.7	67
4	10908	6.8	68
4	11067	6.9	69
4	11226	7	70
4	11385	7.1	71
4	11544	7.2	72
4	11703	7.3	73
4	11862	7.4	74
4	12021	7.5	75
4	12180	7.6	76
4	12339	7.7	77
4	12498	7.8	78
4	12657	7.9	79
4	12816	8	80
4	12975	8.1	81
4	13134	8.2	82
4	13293	8.3	83
4	13452	8.4	84
4	13611	8.5	85
4	13770	8.6	86
4	13929	8.7	87
4	14088	8.8	88
4	14247	8.9	89
4	14406	9	90
4	14565	9.1	91
4	14724	9.2	92
4	14883	9.3	93
4	15042	9.4	94
4	15201	9.5	95
4	15360	9.6	96
4	15519	9.7	97
4	15678	9.8	98
4	15837	9.9	99
4	15996	10	100
4	16155	10.1	101
4	16314	10.2	102
9	117	0.1	1
14	123	0.10000576	64
14	262	0.100204239998	1296
14	421	0.20010432	1296
14	580	0.30010432	1296
14	739	0.40010432	1296
14	898	0.50010432	1296
14	1057	0.60010432	1296
14	1216	0.70010432	1296
14	1375	0.80010432	1296
14	1534	0.90010432	1296
14	1693	1.00010432	1296
14	1852	1.10010432	1296
14	2011	1.20010432	1296
14	2170	1.30010432	1296
14	2329	1.40010432	1296
14	2488	1.50010432	1296
14	2647	1.60010432	1296
14	2806	1.70010432	1296
14	2965	1.80010432	1296
14	3124	1.90010432	1296
14	3283	2.00010432	1296
14	3442	2.10010432	1296
14	3601	2.20010432	1296
14	3760	2.30010432	1296
14	3919	2.40010432	1296
14	4078	2.50010432	1296
14	4237	2.60010432	1296
14	4396	2.70010432	1296
14	4555	2.80010432	1296
14	4714	2.90010432	1296
14	4873	3.00010432	1296
14	5032	3.10010432	1296
14	5191	3.20010432	1296
14	5350	3.30010432	1296
14	5509	3.40010432	1296
14	5668	3.50010432	1296
14	5827	3.60010432	1296
14	5986	3.70010432	1296
14	6145	3.80010432	1296
14	6304	3.90010432	1296
14	6463	4.00010432	1296
14	6622	4.10010432	1296
14	6781	4.20010432	1296
14	6940	4.30010432	1296
14	7099	4.40010432	1296
14	7258	4.50010432	1296
14	7417	4.60010432	1296
14	7576	4.70010432	1296
14	7735	4.80010432	1296
14	7894	4.90010432	1296
14	8053	5.00010432	1296
14	8212	5.10010432	1296
14	8371	5.20010432	1296
14	8530	5.30010432	1296
14	8689	5.40010432	1296
14	8848	5.50010432	1296
14	9007	5.60010432	1296
14	9166	5.70010432	1296
14	9325	5.80010432	1296
14	9484	5.90010432	1296
14	9643	6.00010432	1296
14	9802	6.10010432	1296
14	9961	6.20010432	1296
14	10120	6.30010432	1296
14	10279	6.40010432	1296
14	10438	6.50010432	1296
14	10597	6.60010432	1296
14	10756	6.70010432	1296
14	10915	6.80010432	1296
14	11074	6.90010432	1296
14	11233	7.00010432	1296
14	11392	7.10010432	1296
14	11551	7.20010432	1296
14	11710	7.30010432	1296
14	11869	7.40010432	1296
14	12028	7.50010432	1296
14	12187	7.60010432	1296
14	12346	7.70010432	1296
14	12505	7.80010432	1296
14	12664	7.90010432	1296
14	12823	8.00010432	1296
14	12982	8.10010432	1296
14	13141	8.20010432	1296
14	13300	8.30010432	1296
14	13459	8.40010432	1296
14	13618	8.50010432	1296
14	13777	8.60010432	1296
14	13936	8.70010432	1296
14	14095	8.80010432	1296
14	14254	8.90010432	1296
14	14413	9.00010432	1296
14	14572	9.10010432	1296
14	14731	9.20010432	1296
14	14890	9.30010432	1296
14	15049	9.40010432	1296
14	15208	9.50010432	1296
14	15367	9.60010432	1296
14	15526	9.70010432	1296
14	15685	9.80010432	1296
14	15844	9.90010432	1296
14	16003	10.00010432	1296
14	16162	10.10010432	1296
14	16321	10.20010432	1296
15	249	0.100099919998	64
16	249	0.100099919998	64
19	121	0.1	64
19	260	0.100099919998	1296
19	419	0.2	1296
19	578	0.3	1296
19	737	0.4	1296
19	896	0.5	1296
19	1055	0.6	1296
19	1214	0.7	1296
19	1373	0.8	1296
19	1532	0.9	1296
19	1691	1	1296
19	1850	1.1	1296
19	2009	1.2	1296
19	2168	1.3	1296
19	2327	1.4	1296
19	2486	1.5	1296
19	2645	1.6	1296
19	2804	1.7	1296
19	2963	1.8	1296
19	3122	1.9	1296
19	3281	2	1296
19	3440	2.1	1296
19	3599	2.2	1296
19	3758	2.3	1296
19	3917	2.4	1296
19	4076	2.5	1296
19	4235	2.6	1296
19	4394	2.7	1296
19	4553	2.8	1296
19	4712	2.9	1296
19	4871	3	1296
19	5030	3.1	1296
19	5189	3.2	1296
19	5348	3.3	1296
19	5507	3.4	1296
19	5666	3.5	1296
19	5825	3.6	1296
19	5984	3.7	1296
19	6143	3.8	1296
19	6302	3.9	1296
19	6461	4	1296
19	6620	4.1	1296
19	6779	4.2	1296
19	6938	4.3	1296
19	7097	4.4	1296
19	7256	4.5	1296
19	7415	4.6	1296
19	7574	4.7	1296
19	7733	4.8	1296
19	7892	4.9	1296
19	8051	5	1296
19	8210	5.1	1296
19	8369	5.2	1296
19	8528	5.3	1296
19	8687	5.4	1296
19	8846	5.5	1296
19	9005	5.6	1296
19	9164	5.7	1296
19	9323	5.8	1296
19	9482	5.9	1296
19	9641	6	1296
19	9800	6.1	1296
19	9959	6.2	1296
19	10118	6.3	1296
19	10277	6.4	1296
19	10436	6.5	1296
19	10595	6.6	1296
19	10754	6.7	1296
19	10913	6.8	1296
19	11072	6.9	1296
19	11231	7	1296
19	11390	7.1	1296
19	11549	7.2	1296
19	11708	7.3	1296
19	11867	7.4	1296
19	12026	7.5	1296
19	12185	7.6	1296
19	12344	7.7	1296
19	12503	7.8	1296
19	12662	7.9	1296
19	12821	8	1296
19	12980	8.1	1296
19	13139	8.2	1296
19	13298	8.3	1296
19	13457	8.4	1296
19	13616	8.5	1296
19	13775	8.6	1296
19	13934	8.7	1296
19	14093	8.8	1296
19	14252	8.9	1296
19	14411	9	1296
19	14570	9.1	1296
19	14729	9.2	1296
19	14888	9.3	1296
19	15047	9.4	1296
19	15206	9.5	1296
19	15365	9.6	1296
19	15524	9.7	1296
19	15683	9.8	1296
19	15842	9.9	1296
19	16001	10	1296
19	16160	10.1	1296
19	16319	10.2	1296
23	120	0.1	28
23	259	0.100099919998	1278
23	418	0.2	1278
23	577	0.3	1278
23	736	0.4	1278
23	895	0.5	1278
23	1054	0.6	1278
23	1213	0.7	1278
23	1372	0.8	1278
23	1531	0.9	1278
23	1690	1	1278
23	1849	1.1	1278
23	2008	1.2	1278
23	2167	1.3	1278
23	2326	1.4	1278
23	2485	1.5	1278
23	2644	1.6	1278
23	2803	1.7	1278
23	2962	1.8	1278
23	3121	1.9	1278
23	3280	2	1278
23	3439	2.1	1278
23	3598	2.2	1278
23	3757	2.3	1278
23	3916	2.4	1278
23	4075	2.5	1278
23	4234	2.6	1278
23	4393	2.7	1278
23	4552	2.8	1278
23	4711	2.9	1278
23	4870	3	1278
23	5029	3.1	1278
23	5188	3.2	1278
23	5347	3.3	1278
23	5506	3.4	1278
23	5665	3.5	1278
23	5824	3.6	1278
23	5983	3.7	1278
23	6142	3.8	1278
23	6301	3.9	1278
23	6460	4	1278
23	6619	4.1	1278
23	6778	4.2	1278
23	6937	4.3	1278
23	7096	4.4	1278
23	7255	4.5	1278
23	7414	4.6	1278
23	7573	4.7	1278
23	7732	4.8	1278
23	7891	4.9	1278
23	8050	5	1278
23	8209	5.1	1278
23	8368	5.2	1278
23	8527	5.3	1278
23	8686	5.4	1278
23	8845	5.5	1278
23	9004	5.6	1278
23	9163	5.7	1278
23	9322	5.8	1278
23	9481	5.9	1278
23	9640	6	1278
23	9799	6.1	1278
23	9958	6.2	1278
23	10117	6.3	1278
23	10276	6.4	1278
23	10435	6.5	1278
23	10594	6.6	1278
23	10753	6.7	1278
23	10912	6.8	1278
23	11071	6.9	1278
23	11230	7	1278
23	11389	7.1	1278
23	11548	7.2	1278
23	11707	7.3	1278
23	11866	7.4	1278
23	12025	7.5	1278
23	12184	7.6	1278
23	12343	7.7	1278
23	12502	7.8	1278
23	12661	7.9	1278
23	12820	8	1278
23	12979	8.1	1278
23	13138	8.2	1278
23	13297	8.3	1278
23	13456	8.4	1278
23	13615	8.5	1278
23	13774	8.6	1278
23	13933	8.7	1278
23	14092	8.8	1278
23	14251	8.9	1278
23	14410	9	1278
23	14569	9.1	1278
23	14728	9.2	1278
23	14887	9.3	1278
23	15046	9.4	1278
23	15205	9.5	1278
23	15364	9.6	1278
23	15523	9.7	1278
23	15682	9.8	1278
23	15841	9.9	1278
23	16000	10	1278
23	16159	10.1	1278
23	16318	10.2	1278
24	251	0.100099919998	28
26	411	0.100569039992	1250
26	570	0.200469119994	1250
26	729	0.300469119994	1250
26	888	0.400469119994	1250
26	1047	0.500469119994	1250
26	1206	0.600469119994	1250
26	1365	0.700469119994	1250
26	1524	0.800469119994	1250
26	1683	0.900469119994	1250
26	1842	1.000469119994	1250
26	2001	1.100469119994	1250
26	2160	1.200469119994	1250
26	2319	1.300469119994	1250
26	2478	1.400469119994	1250
26	2637	1.500469119994	1250
26	2796	1.600469119994	1250
26	2955	1.700469119994	1250
26	3114	1.800469119994	1250
26	3273	1.900469119994	1250
26	3432	2.000469119994	1250
26	3591	2.100469119994	1250
26	3750	2.200469119994	1250
26	3909	2.300469119994	1250
26	4068	2.400469119994	1250
26	4227	2.500469119994	1250
26	4386	2.600469119994	1250
26	4545	2.700469119994	1250
26	4704	2.800469119994	1250
26	4863	2.900469119994	1250
26	5022	3.000469119994	1250
26	5181	3.100469119994	1250
26	5340	3.200469119994	1250
26	5499	3.300469119994	1250
26	5658	3.400469119994	1250
26	5817	3.500469119994	1250
26	5976	3.600469119994	1250
26	6135	3.700469119994	1250
26	6294	3.800469119994	1250
26	6453	3.900469119994	1250
26	6612	4.000469119994	1250
26	6771	4.100469119994	1250
26	6930	4.200469119994	1250
26	7089	4.300469119994	1250
26	7248	4.400469119994	1250
26	7407	4.500469119994	1250
26	7566	4.600469119994	1250
26	7725	4.700469119994	1250
26	7884	4.800469119994	1250
26	8043	4.900469119994	1250
26	8202	5.000469119994	1250
26	8361	5.100469119994	1250
26	8520	5.200469119994	1250
26	8679	5.300469119994	1250
26	8838	5.400469119994	1250
26	8997	5.500469119994	1250
26	9156	5.600469119994	1250
26	9315	5.700469119994	1250
26	9474	5.800469119994	1250
26	9633	5.900469119994	1250
26	9792	6.000469119994	1250
26	9951	6.100469119994	1250
26	10110	6.200469119994	1250
26	10269	6.300469119994	1250
26	10428	6.400469119994	1250
26	10587	6.500469119994	1250
26	10746	6.600469119994	1250
26	10905	6.700469119994	1250
26	11064	6.800469119994	1250
26	11223	6.900469119994	1250
26	11382	7.000469119994	1250
26	11541	7.100469119994	1250
26	11700	7.200469119994	1250
26	11859	7.300469119994	1250
26	12018	7.400469119994	1250
26	12177	7.500469119994	1250
26	12336	7.600469119994	1250
26	12495	7.700469119994	1250
26	12654	7.800469119994	1250
26	12813	7.900469119994	1250
26	12972	8.000469119994	1250
26	13131	8.100469119994	1250
26	13290	8.200469119994	1250
26	13449	8.300469119994	1250
26	13608	8.400469119994	1250
26	13767	8.500469119994	1250
26	13926	8.600469119994	1250
26	14085	8.700469119994	1250
26	14244	8.800469119994	1250
26	14403	8.900469119994	1250
26	14562	9.000469119994	1250
26	14721	9.100469119994	1250
26	14880	9.200469119994	1250
26	15039	9.300469119994	1250
26	15198	9.400469119994	1250
26	15357	9.500469119994	1250
26	15516	9.600469119994	1250
26	15675	9.700469119994	1250
26	15834	9.800469119994	1250
26	15993	9.900469119994	1250
26	16152	10.000469119994	1250
26	16311	10.100469119994	1250
27	411	0.100569039992	1
27	570	0.200469119994	2
27	729	0.300469119994	3
27	888	0.400469119994	4
27	1047	0.500469119994	5
27	1206	0.600469119994	6
27	1365	0.700469119994	7
27	1524	0.800469119994	8
27	1683	0.900469119994	9
27	1842	1.000469119994	10
27	2001	1.100469119994	11
27	2160	1.200469119994	12
27	2319	1.300469119994	13
27	2478	1.400469119994	14
27	2637	1.500469119994	15
27	2796	1.600469119994	16
27	2955	1.700469119994	17
27	3114	1.800469119994	18
27	3273	1.900469119994	19
27	3432	2.000469119994	20
27	3591	2.100469119994	21
27	3750	2.200469119994	22
27	3909	2.300469119994	23
27	4068	2.400469119994	24
27	4227	2.500469119994	25
27	4386	2.600469119994	26
27	4545	2.700469119994	27
27	4704	2.800469119994	28
27	4863	2.900469119994	29
27	5022	3.000469119994	30
27	5181	3.100469119994	31
27	5340	3.200469119994	32
27	5499	3.300469119994	33
27	5658	3.400469119994	34
27	5817	3.500469119994	35
27	5976	3.600469119994	36
27	6135	3.700469119994	37
27	6294	3.800469119994	38
27	6453	3.900469119994	39
27	6612	4.000469119994	40
27	6771	4.100469119994	41
27	6930	4.200469119994	42
27	7089	4.300469119994	43
27	7248	4.400469119994	44
27	7407	4.500469119994	45
27	7566	4.600469119994	46
27	7725	4.700469119994	47
27	7884	4.800469119994	48
27	8043	4.900469119994	49
27	8202	5.000469119994	50
27	8361	5.100469119994	51
27	8520	5.200469119994	52
27	8679	5.300469119994	53
27	8838	5.400469119994	54
27	8997	5.500469119994	55
27	9156	5.600469119994	56
27	9315	5.700469119994	57
27	9474	5.800469119994	58
27	9633	5.900469119994	59
27	9792	6.000469119994	60
27	9951	6.100469119994	61
27	10110	6.200469119994	62
27	10269	6.300469119994	63
27	10428	6.400469119994	64
27	10587	6.500469119994	65
27	10746	6.600469119994	66
27	10905	6.700469119994	67
27	11064	6.800469119994	68
27	11223	6.900469119994	69
27	11382	7.000469119994	70
27	11541	7.100469119994	71
27	11700	7.200469119994	72
27	11859	7.300469119994	73
27	12018	7.400469119994	74
27	12177	7.500469119994	75
27	12336	7.600469119994	76
27	12495	7.700469119994	77
27	12654	7.800469119994	78
27	12813	7.900469119994	79
27	12972	8.000469119994	80
27	13131	8.100469119994	81
27	13290	8.200469119994	82
27	13449	8.300469119994	83
27	13608	8.400469119994	84
27	13767	8.500469119994	85
27	13926	8.600469119994	86
27	14085	8.700469119994	87
27	14244	8.800469119994	88
27	14403	8.900469119994	89
27	14562	9.000469119994	90
27	14721	9.100469119994	91
27	14880	9.200469119994	92
27	15039	9.300469119994	93
27	15198	9.400469119994	94
27	15357	9.500469119994	95
27	15516	9.600469119994	96
27	15675	9.700469119994	97
27	15834	9.800469119994	98
27	15993	9.900469119994	99
27	16152	10.000469119994	100
27	16311	10.100469119994	101
28	1842	1.000469119994	10
28	3432	2.000469119994	10
28	5022	3.000469119994	10
28	6612	4.000469119994	10
28	8202	5.000469119994	10
28	9792	6.000469119994	10
28	11382	7.000469119994	10
28	12972	8.000469119994	10
28	14562	9.000469119994	10
28	16152	10.000469119994	10
31	409	0.100569039992	1258
31	568	0.200469119994	1258
31	727	0.300469119994	1258
31	886	0.400469119994	1258
31	1045	0.500469119994	1258
31	1204	0.600469119994	1258
31	1363	0.700469119994	1258
31	1522	0.800469119994	1258
31	1681	0.900469119994	1258
31	1840	1.000469119994	1258
31	1999	1.100469119994	1258
31	2158	1.200469119994	1258
31	2317	1.300469119994	1258
31	2476	1.400469119994	1258
31	2635	1.500469119994	1258
31	2794	1.600469119994	1258
31	2953	1.700469119994	1258
31	3112	1.800469119994	1258
31	3271	1.900469119994	1258
31	3430	2.000469119994	1258
31	3589	2.100469119994	1258
31	3748	2.200469119994	1258
31	3907	2.300469119994	1258
31	4066	2.400469119994	1258
31	4225	2.500469119994	1258
31	4384	2.600469119994	1258
31	4543	2.700469119994	1258
31	4702	2.800469119994	1258
31	4861	2.900469119994	1258
31	5020	3.000469119994	1258
31	5179	3.100469119994	1258
31	5338	3.200469119994	1258
31	5497	3.300469119994	1258
31	5656	3.400469119994	1258
31	5815	3.500469119994	1258
31	5974	3.600469119994	1258
31	6133	3.700469119994	1258
31	6292	3.800469119994	1258
31	6451	3.900469119994	1258
31	6610	4.000469119994	1258
31	6769	4.100469119994	1258
31	6928	4.200469119994	1258
31	7087	4.300469119994	1258
31	7246	4.400469119994	1258
31	7405	4.500469119994	1258
31	7564	4.600469119994	1258
31	7723	4.700469119994	1258
31	7882	4.800469119994	1258
31	8041	4.900469119994	1258
31	8200	5.000469119994	1258
31	8359	5.100469119994	1258
31	8518	5.200469119994	1258
31	8677	5.300469119994	1258
31	8836	5.400469119994	1258
31	8995	5.500469119994	1258
31	9154	5.600469119994	1258
31	9313	5.700469119994	1258
31	9472	5.800469119994	1258
31	9631	5.900469119994	1258
31	9790	6.000469119994	1258
31	9949	6.100469119994	1258
31	10108	6.200469119994	1258
31	10267	6.300469119994	1258
31	10426	6.400469119994	1258
31	10585	6.500469119994	1258
31	10744	6.600469119994	1258
31	10903	6.700469119994	1258
31	11062	6.800469119994	1258
31	11221	6.900469119994	1258
31	11380	7.000469119994	1258
31	11539	7.100469119994	1258
31	11698	7.200469119994	1258
31	11857	7.300469119994	1258
31	12016	7.400469119994	1258
31	12175	7.500469119994	1258
31	12334	7.600469119994	1258
31	12493	7.700469119994	1258
31	12652	7.800469119994	1258
31	12811	7.900469119994	1258
31	12970	8.000469119994	1258
31	13129	8.100469119994	1258
31	13288	8.200469119994	1258
31	13447	8.300469119994	1258
31	13606	8.400469119994	1258
31	13765	8.500469119994	1258
31	13924	8.600469119994	1258
31	14083	8.700469119994	1258
31	14242	8.800469119994	1258
31	14401	8.900469119994	1258
31	14560	9.000469119994	1258
31	14719	9.100469119994	1258
31	14878	9.200469119994	1258
31	15037	9.300469119994	1258
31	15196	9.400469119994	1258
31	15355	9.500469119994	1258
31	15514	9.600469119994	1258
31	15673	9.700469119994	1258
31	15832	9.800469119994	1258
31	15991	9.900469119994	1258
31	16150	10.000469119994	1258
31	16309	10.100469119994	1258
32	409	0.100569039992	1
32	568	0.200469119994	2
32	727	0.300469119994	3
32	886	0.400469119994	4
32	1045	0.500469119994	5
32	1204	0.600469119994	6
32	1363	0.700469119994	7
32	1522	0.800469119994	8
32	1681	0.900469119994	9
32	1840	1.000469119994	10
32	1999	1.100469119994	11
32	2158	1.200469119994	12
32	2317	1.300469119994	13
32	2476	1.400469119994	14
32	2635	1.500469119994	15
32	2794	1.600469119994	16
32	2953	1.700469119994	17
32	3112	1.800469119994	18
32	3271	1.900469119994	19
32	3430	2.000469119994	20
32	3589	2.100469119994	21
32	3748	2.200469119994	22
32	3907	2.300469119994	23
32	4066	2.400469119994	24
32	4225	2.500469119994	25
32	4384	2.600469119994	26
32	4543	2.700469119994	27
32	4702	2.800469119994	28
32	4861	2.900469119994	29
32	5020	3.000469119994	30
32	5179	3.100469119994	31
32	5338	3.200469119994	32
32	5497	3.300469119994	33
32	5656	3.400469119994	34
32	5815	3.500469119994	35
32	5974	3.600469119994	36
32	6133	3.700469119994	37
32	6292	3.800469119994	38
32	6451	3.900469119994	39
32	6610	4.000469119994	40
32	6769	4.100469119994	41
32	6928	4.200469119994	42
32	7087	4.300469119994	43
32	7246	4.400469119994	44
32	7405	4.500469119994	45
32	7564	4.600469119994	46
32	7723	4.700469119994	47
32	7882	4.800469119994	48
32	8041	4.900469119994	49
32	8200	5.000469119994	50
32	8359	5.100469119994	51