file 9391723 1478515824                                         
version 2
run simple_attack-0-20161107-11:50:19-18831
attr configname simple_attack
attr datetime 20161107-11:50:19
attr experiment simple_attack
attr inifile omnetpp.ini
attr iterationvars ""
attr iterationvars2 $repetition=0
attr measurement ""
attr network Topo
attr processid 18831
attr repetition 0
attr replication #0
attr resultdir results
attr runnumber 0
attr seedset 0

vector 141  Topo.s1.tcp  tcpRcvQueueBytes  ETV
vector 128  Topo.s1.tcp  "advertised window"  ETV
vector 127  Topo.s1.tcp  "receive window"  ETV
vector 130  Topo.s1.tcp  "sent ack"  ETV
vector 74  Topo.s1.networkLayer.arp  sentReq:vector  ETV
attr title  "ARP request sent, vector"
vector 85  Topo.s1.eth[0].encap  encapPk:vector(packetBytes)  ETV
attr interpolationmode  none
attr source  encapPk
attr title  "packets encapsulated, vector(packetBytes)"
vector 81  Topo.s1.eth[0].mac  rxPkFromHL:vector(packetBytes)  ETV
attr interpolationmode  none
attr source  rxPkFromHL
attr title  "packet bytes from higher layer, vector(packetBytes)"
vector 76  Topo.s1.eth[0].mac  txPk:vector(packetBytes)  ETV
attr interpolationmode  none
attr source  txPk
attr title  "packets transmitted, vector(packetBytes)"
vector 91  Topo.controller.eth[0].mac  rxPkOk:vector(packetBytes)  ETV
attr interpolationmode  none
attr source  rxPkOk
attr title  "packets received OK, vector(packetBytes)"
vector 92  Topo.controller.eth[0].mac  passedUpPk:vector(packetBytes)  ETV
attr interpolationmode  none
attr source  packetSentToUpper
attr title  "packets passed to higher layer, vector(packetBytes)"
vector 100  Topo.controller.eth[0].encap  decapPk:vector(packetBytes)  ETV
attr interpolationmode  none
attr source  decapPk
attr title  "packets decapsulated, vector(packetBytes)"
vector 89  Topo.controller.networkLayer.arp  sentReply:vector  ETV
attr title  "ARP replies sent, vector"
vector 99  Topo.controller.eth[0].encap  encapPk:vector(packetBytes)  ETV
attr interpolationmode  none
attr source  encapPk
attr title  "packets encapsulated, vector(packetBytes)"
vector 95  Topo.controller.eth[0].mac  rxPkFromHL:vector(packetBytes)  ETV
attr interpolationmode  none
attr source  rxPkFromHL
attr title  "packet bytes from higher layer, vector(packetBytes)"
vector 90  Topo.controller.eth[0].mac  txPk:vector(packetBytes)  ETV
attr interpolationmode  none
attr source  txPk
attr title  "packets transmitted, vector(packetBytes)"
vector 77  Topo.s1.eth[0].mac  rxPkOk:vector(packetBytes)  ETV
attr interpolationmode  none
attr source  rxPkOk
attr title  "packets received OK, vector(packetBytes)"
vector 78  Topo.s1.eth[0].mac  passedUpPk:vector(packetBytes)  ETV
attr interpolationmode  none
attr source  packetSentToUpper
attr title  "packets passed to higher layer, vector(packetBytes)"
vector 86  Topo.s1.eth[0].encap  decapPk:vector(packetBytes)  ETV
attr interpolationmode  none
attr source  decapPk
attr title  "packets decapsulated, vector(packetBytes)"
vector 107  Topo.controller.tcp  "rcvd seq"  ETV
vector 108  Topo.controller.tcp  "rcvd ack"  ETV
vector 104  Topo.controller.tcp  "advertised window"  ETV
vector 102  Topo.controller.tcp  "send window"  ETV
vector 117  Topo.controller.tcp  tcpRcvQueueBytes  ETV
vector 103  Topo.controller.tcp  "receive window"  ETV
vector 106  Topo.controller.tcp  "sent ack"  ETV
vector 131  Topo.s1.tcp  "rcvd seq"  ETV
vector 132  Topo.s1.tcp  "rcvd ack"  ETV
vector 126  Topo.s1.tcp  "send window"  ETV
vector 109  Topo.controller.tcp  "unacked bytes"  ETV
vector 105  Topo.controller.tcp  "sent seq"  ETV
vector 134  Topo.s1.tcp  "rcvd dupAcks"  ETV
vector 129  Topo.s1.tcp  "sent seq"  ETV
vector 133  Topo.s1.tcp  "unacked bytes"  ETV
vector 121  Topo.controller.tcp  "measured RTT"  ETV
vector 122  Topo.controller.tcp  "smoothed RTT"  ETV
vector 123  Topo.controller.tcp  RTTVAR  ETV
vector 124  Topo.controller.tcp  RTO  ETV
vector 119  Topo.controller.tcp  cwnd  ETV
vector 110  Topo.controller.tcp  "rcvd dupAcks"  ETV
vector 145  Topo.s1.tcp  "measured RTT"  ETV
vector 146  Topo.s1.tcp  "smoothed RTT"  ETV
vector 147  Topo.s1.tcp  RTTVAR  ETV
vector 148  Topo.s1.tcp  RTO  ETV
vector 143  Topo.s1.tcp  cwnd  ETV
vector 1  Topo.client.udpApp[0]  sentPk:vector(packetBytes)  ETV
attr interpolationmode  none
attr source  sentPk
attr title  "packets sent, vector(packetBytes)"
vector 3  Topo.client.udp  sentPk:vector(packetBytes)  ETV
attr interpolationmode  none
attr source  sentPk
attr title  "packets sent, vector(packetBytes)"
vector 4  Topo.client.udp  sentPk:vector(count)  ETV
attr interpolationmode  none
attr source  sentPk
attr title  "packets sent, vector(count)"
vector 9  Topo.client.networkLayer.arp  sentReq:vector  ETV
attr title  "ARP request sent, vector"
vector 23  Topo.client.eth[0].encap  encapPk:vector(packetBytes)  ETV
attr interpolationmode  none
attr source  encapPk
attr title  "packets encapsulated, vector(packetBytes)"
vector 19  Topo.client.eth[0].mac  rxPkFromHL:vector(packetBytes)  ETV
attr interpolationmode  none
attr source  rxPkFromHL
attr title  "packet bytes from higher layer, vector(packetBytes)"
vector 14  Topo.client.eth[0].mac  txPk:vector(packetBytes)  ETV
attr interpolationmode  none
attr source  txPk
attr title  "packets transmitted, vector(packetBytes)"
vector 53  Topo.s1.etherMAC[0]  rxPkOk:vector(packetBytes)  ETV
attr interpolationmode  none
attr source  rxPkOk
attr title  "packets received OK, vector(packetBytes)"
vector 54  Topo.s1.etherMAC[0]  passedUpPk:vector(packetBytes)  ETV
attr interpolationmode  none
attr source  packetSentToUpper
attr title  "packets passed to higher layer, vector(packetBytes)"
vector 68  Topo.s1.etherMAC[1]  rxPkFromHL:vector(packetBytes)  ETV
attr interpolationmode  none
attr source  rxPkFromHL
attr title  "packet bytes from higher layer, vector(packetBytes)"
vector 63  Topo.s1.etherMAC[1]  txPk:vector(packetBytes)  ETV
attr interpolationmode  none
attr source  txPk
attr title  "packets transmitted, vector(packetBytes)"
vector 41  Topo.server.eth[0].mac  rxPkOk:vector(packetBytes)  ETV
attr interpolationmode  none
attr source  rxPkOk
attr title  "packets received OK, vector(packetBytes)"
vector 42  Topo.server.eth[0].mac  passedUpPk:vector(packetBytes)  ETV
attr interpolationmode  none
attr source  packetSentToUpper
attr title  "packets passed to higher layer, vector(packetBytes)"
vector 50  Topo.server.eth[0].encap  decapPk:vector(packetBytes)  ETV
attr interpolationmode  none
attr source  decapPk
attr title  "packets decapsulated, vector(packetBytes)"
vector 36  Topo.server.networkLayer.arp  sentReply:vector  ETV
attr title  "ARP replies sent, vector"
vector 49  Topo.server.eth[0].encap  encapPk:vector(packetBytes)  ETV
attr interpolationmode  none
attr source  encapPk
attr title  "packets encapsulated, vector(packetBytes)"
vector 45  Topo.server.eth[0].mac  rxPkFromHL:vector(packetBytes)  ETV
attr interpolationmode  none
attr source  rxPkFromHL
attr title  "packet bytes from higher layer, vector(packetBytes)"
vector 40  Topo.server.eth[0].mac  txPk:vector(packetBytes)  ETV
attr interpolationmode  none
attr source  txPk
attr title  "packets transmitted, vector(packetBytes)"
vector 64  Topo.s1.etherMAC[1]  rxPkOk:vector(packetBytes)  ETV
attr interpolationmode  none
attr source  rxPkOk
attr title  "packets received OK, vector(packetBytes)"
vector 65  Topo.s1.etherMAC[1]  passedUpPk:vector(packetBytes)  ETV
attr interpolationmode  none
attr source  packetSentToUpper
attr title  "packets passed to higher layer, vector(packetBytes)"
vector 57  Topo.s1.etherMAC[0]  rxPkFromHL:vector(packetBytes)  ETV
attr interpolationmode  none
attr source  rxPkFromHL
attr title  "packet bytes from higher layer, vector(packetBytes)"
vector 52  Topo.s1.etherMAC[0]  txPk:vector(packetBytes)  ETV
attr interpolationmode  none
attr source  txPk
attr title  "packets transmitted, vector(packetBytes)"
vector 15  Topo.client.eth[0].mac  rxPkOk:vector(packetBytes)  ETV
attr interpolationmode  none
attr source  rxPkOk
attr title  "packets received OK, vector(packetBytes)"
vector 16  Topo.client.eth[0].mac  passedUpPk:vector(packetBytes)  ETV
attr interpolationmode  none
attr source  packetSentToUpper
attr title  "packets passed to higher layer, vector(packetBytes)"
vector 24  Topo.client.eth[0].encap  decapPk:vector(packetBytes)  ETV
attr interpolationmode  none
attr source  decapPk
attr title  "packets decapsulated, vector(packetBytes)"
vector 31  Topo.server.udp  rcvdPk:vector(packetBytes)  ETV
attr interpolationmode  none
attr source  rcvdPk
attr title  "packets received, vector(packetBytes)"
vector 32  Topo.server.udp  passedUpPk:vector(count)  ETV
attr interpolationmode  none
attr title  "packets passed up, vector(count)"
vector 26  Topo.server.udpApp[0]  rcvdPk:vector(packetBytes)  ETV
attr interpolationmode  none
attr source  rcvdPk
attr title  "packets received, vector(packetBytes)"
vector 27  Topo.server.udpApp[0]  rcvdPk:vector(count)  ETV
attr interpolationmode  none
attr source  rcvdPk
attr title  "packets received, vector(count)"
vector 28  Topo.server.udpApp[0]  rcvdAppPkt:vector  ETV
attr interpolationmode  none
attr source  rcvdAppPkt
attr title  "packets received during sec, vector"
1	9155 17106 111 208188 0.1 95 950 1250 1250 1187500 1484375000
3	26261 25529 115 208103 0.1 94.99 1449 8 1258 1197842 1501885236
4	51790 25922 115 208103 0.1 94.99 1449 1 1449 1050525 1015157325
9	77712 12 117 117 0.1 0.1 1 1 1 1 1
14	77724 37594 123 208110 0.10000576 94.99000576 1450 64 1296 1261968 1596007680
15	115318 25 249 249 0.100099919998 0.100099919998 1 64 64 64 4096
16	115343 25 249 249 0.100099919998 0.100099919998 1 64 64 64 4096
19	115368 27503 121 208108 0.1 94.99 1450 64 1296 1261968 1596007680
23	142871 27503 120 208107 0.1 94.99 1450 28 1278 1226850 1550379300
24	170374 25 251 251 0.100099919998 0.100099919998 1 28 28 28 784
26	170399 42668 411 208187 0.100569039992 94.990056719999 1449 0 1250 1186250 1482812500
27	213067 43061 411 208187 0.100569039992 94.990056719999 1449 1 1449 1050525 1015157325
28	256128 2657 1842 198097 1.000469119994 94.000469119994 94 10 110 1340 57400
31	258785 42668 409 208185 0.100569039992 94.990056719999 1449 8 1258 1197842 1501885236
32	301453 43061 409 208185 0.100569039992 94.990056719999 1449 1 1449 1050525 1015157325
36	344514 24 177 177 0.100043199999 0.100043199999 1 1 1 1 1
40	344538 25 183 183 0.100048959999 0.100048959999 1 64 64 64 4096
41	344563 43193 169 208176 0.100043199999 94.990056719999 1450 64 1296 1261968 1596007680
42	387756 43193 169 208176 0.100043199999 94.990056719999 1450 64 1296 1261968 1596007680
45	430949 25 181 181 0.100043199999 0.100043199999 1 64 64 64 4096
49	430974 25 180 180 0.100043199999 0.100043199999 1 28 28 28 784
50	430999 43193 171 208178 0.100043199999 94.990056719999 1450 28 1278 1226850 1550379300
52	474192 25 245 245 0.100098919998 0.100098919998 1 64 64 64 4096
53	474217 37594 125 208112 0.10000676 94.99000676 1450 64 1296 1261968 1596007680
54	511811 37594 125 208112 0.10000676 94.99000676 1450 64 1296 1261968 1596007680
57	549405 25 242 242 0.100093159998 0.100093159998 1 64 64 64 4096
63	549430 43193 165 208172 0.100042199999 94.990055719999 1450 64 1296 1261968 1596007680
64	592623 25 185 185 0.100049959999 0.100049959999 1 64 64 64 4096
65	592648 25 185 185 0.100049959999 0.100049959999 1 64 64 64 4096
68	592673 43193 162 208169 0.100036439999 94.990049959999 1450 64 1296 1261968 1596007680
74	635866 10 22 22 0 0 1 1 1 1 1
76	635876 246169 26 208173 0.00000576 94.990055719999 8760 64 594 1804029 775445403
77	882045 245250 37 208163 0.00001352 94.990049959999 8759 64 594 1804014 775453410
78	1127295 245250 37 208163 0.00001352 94.990049959999 8759 64 594 1804014 775453410
81	1372545 238369 25 208171 0 94.990049959999 8760 64 594 1804029 775445403
85	1610914 238369 24 208170 0 94.990049959999 8760 28 576 1614529 710599017
86	1849283 245250 38 208164 0.00001352 94.990049959999 8759 28 576 1615289 710668587
89	2094533 19 31 31 0.00000676 0.00000676 1 1 1 1 1
90	2094552 245249 35 208161 0.00001252 94.990048959999 8759 64 594 1804014 775453410
91	2339801 246169 28 208177 0.00000676 94.990056719999 8760 64 594 1804029 775445403
92	2585970 246169 28 208177 0.00000676 94.990056719999 8760 64 594 1804029 775445403
95	2832139 244317 34 208160 0.00000676 94.990038479999 8759 64 594 1804014 775453410
99	3076456 244316 33 208159 0.00000676 94.990038479999 8759 28 576 1615289 710668587
100	3320772 254929 29 208179 0.00000676 94.990056719999 8760 28 576 1614529 710599017
102	3575701 149134 48 208183 0.00002028 94.990056719999 4756 7504 7504 35689024 267810436096
103	3724835 267220 48 208157 0.00002028 94.990038479999 8758 7504 7504 65720032 493163120128
104	3992055 287170 48 208157 0.00002028 94.990038479999 8759 7505 1271642 6462112229 6.0915499176834e+15
105	4279225 158068 70 208157 0.0000338 94.990038479999 4754 6 1264878 3500080420 3.3377394811434e+15
106	4437293 287003 48 208157 0.00002028 94.990038479999 8758 1 1264138 6396384692 5.9950597567807e+15
107	4724296 288851 48 208183 0.00002028 94.990056719999 8759 0 1264138 6395135742 5.9934965749294e+15
108	5013147 288838 48 208183 0.00002028 94.990056719999 8759 0 1264943 6393374392 5.9924220465541e+15
109	5301985 224439 67 208183 0.0000338 94.990056719999 7611 0 1363 3505708 3892888082
110	5526424 242761 93 208183 0.00004732 94.990056719999 8757 0 0 0 0
117	5769185 348880 48 208157 0.00002028 94.990038479999 12761 0 0 0 0
119	6118065 161285 93 208183 0.00004732 94.990056719999 4754 1072 2548680 6060760504 1.029904315397e+16
121	6279350 75626 93 208183 0.00004732 94.990056719999 1907 1.352e-05 0.000140719995 0.047593597755 1.8856434436035e-06
122	6354976 77031 93 208183 0.00004732 94.990056719999 1907 1.69e-06 3.5621706e-05 0.04744897392 1.2124983559757e-06
123	6432007 72878 93 208183 0.00004732 94.990056719999 1907 1.4e-11 0.65625169 5.2620437893501 1.837559146121
124	6504885 54617 93 208183 0.00004732 94.990056719999 1907 1 2.62500845 1912.7844756822 1924.9296388077
126	6559502 119067 57 208141 0.00002704 94.990025 4004 7504 7504 30046016 225465304064
127	6678569 261277 17 208166 0 94.990049959999 8759 7504 7504 65727536 493219430144
128	6939846 281214 17 208166 0 94.990049959999 8760 7504 1272447 6459109438 6.0888670852595e+15
129	7221060 121103 82 208115 0.00004056 94.99000676 4003 1 1264073 2893139677 2.6541799056686e+15
130	7342163 281038 17 208166 0 94.990049959999 8759 0 1264943 6393374392 5.9924220465541e+15
131	7623201 287914 57 208166 0.00002704 94.990049959999 8758 5 1264878 6392954018 5.9921970427152e+15
132	7911115 287938 57 208166 0.00002704 94.990049959999 8758 1 1264138 6396384692 5.9950597567807e+15
133	8199053 168463 82 208141 0.00004056 94.990025 6108 0 1297 2243510 2231238698
134	8367516 241861 79 208166 0.00004056 94.990049959999 8757 0 0 0 0
141	8609377 369826 17 208166 0 94.990049959999 13513 0 0 0 0
143	8979203 128987 110 208141 0.000060799999 94.990025 4003 1072 2146144 4297652824 6.1496898288756e+15
145	9108190 73793 110 208141 0.000060799999 94.990025 2105 1.352e-05 0.000209279993 0.150000557156 1.5284103405918e-05
146	9181983 78542 110 208141 0.000060799999 94.990025 2105 2.529999e-06 9.5002664e-05 0.149808305911 1.202385631485e-05
147	9260525 77599 110 208141 0.000060799999 94.990025 2105 1.4e-11 0.65625253 5.3180603163432 1.8376332001502
148	9338124 53599 110 208141 0.000060799999 94.990025 2105 1 2.625012649999 2110.7847226108 2122.9302783526
