version 2
run CircleMobility1-attack-0-20150515-15:59:54-3420
attr configname CircleMobility1-attack
attr datetime 20150515-15:59:54
attr experiment CircleMobility1-attack
attr inifile omnetpp.ini
attr iterationvars ""
attr iterationvars2 $repetition=0
attr measurement ""
attr network MobileNetwork
attr processid 3420
attr repetition 0
attr replication #0
attr resultdir results
attr runnumber 0
attr seedset 0

vector 0  MobileNetwork.host[0]  coordX:vector  ETV
attr interpolationmode  linear
attr source  xCoord(mobilityPos(mobilityStateChanged))
attr title  "coord X, vector"
vector 1  MobileNetwork.host[0]  coordY:vector  ETV
attr interpolationmode  linear
attr source  yCoord(mobilityPos(mobilityStateChanged))
attr title  "coord Y, vector"
vector 2  MobileNetwork.host[1]  coordX:vector  ETV
attr interpolationmode  linear
attr source  xCoord(mobilityPos(mobilityStateChanged))
attr title  "coord X, vector"
vector 3  MobileNetwork.host[1]  coordY:vector  ETV
attr interpolationmode  linear
attr source  yCoord(mobilityPos(mobilityStateChanged))
attr title  "coord Y, vector"
vector 4  MobileNetwork.host[2]  coordX:vector  ETV
attr interpolationmode  linear
attr source  xCoord(mobilityPos(mobilityStateChanged))
attr title  "coord X, vector"
vector 5  MobileNetwork.host[2]  coordY:vector  ETV
attr interpolationmode  linear
attr source  yCoord(mobilityPos(mobilityStateChanged))
attr title  "coord Y, vector"
0	0	0	350
0	1	0.1	349.94666982709
0	4	0.2	349.78671722977
0	7	0.3	349.52025594539
0	10	0.4	349.1474754463
0	13	0.5	348.66864080513
0	16	0.6	348.08409250634
0	19	0.7	347.3942462041
0	22	0.8	346.59959242671
0	25	0.9	345.7006962278
0	28	1	344.69819678458
0	31	1.1	343.5928069433
0	34	1.2	342.38531271237
0	37	1.3	341.07657270347
0	40	1.4	339.66751752102
0	43	1.5	338.15914910043
0	46	1.6	336.5525399957
0	49	1.7	334.8488326167
0	52	1.8	333.04923841689
0	55	1.9	331.15503703187
0	58	2	329.16757536947
0	61	2.1	327.08826665201
0	64	2.2	324.91858941141
0	67	2.3	322.66008643782
0	70	2.4	320.31436368264
0	73	2.5	317.88308911654
0	76	2.6	315.36799154342
0	79	2.7	312.77085937113
0	82	2.8	310.09353933978
0	85	2.9	307.33793520856
0	88	3	304.50600640207
0	91	3.1	301.59976661703
0	94	3.2	298.62128239036
0	97	3.3	295.57267162979
0	100	3.4	292.45610210783
0	103	3.5	289.27378992037
0	106	3.6	286.02799791087
0	109	3.7	282.72103406131
0	112	3.8	279.35524985109
0	115	3.9	275.93303858492
0	118	4	272.45683369104
0	121	4.1	268.92910699091
0	124	4.2	265.35236694151
0	127	4.3	261.72915685172
0	130	4.4	258.06205307381
0	133	4.5	254.3536631715
0	136	4.6	250.60662406579
0	139	4.7	246.82360015991
0	142	4.8	243.00728144479
0	145	4.9	239.16038158626
0	148	5	235.28563599545
0	151	5.1	231.38579988371
0	154	5.2	227.46364630351
0	157	5.3	223.52196417656
0	160	5.4	219.56355631072
0	163	5.5	215.591237407
0	166	5.6	211.60783205813
0	169	5.7	207.61617274004
0	172	5.8	203.61909779783
0	175	5.9	199.61944942746
0	178	6	195.62007165481
0	181	6.1	191.6238083133
0	184	6.2	187.6335010218
0	187	6.3	183.65198716402
0	190	6.4	179.68209787092
0	193	6.5	175.72665600761
0	196	6.6	171.78847416607
0	199	6.7	167.8703526652
0	202	6.8	163.97507755964
0	205	6.9	160.10541865865
0	208	7	156.26412755662
0	211	7.1	152.45393567645
0	214	7.2	148.67755232737
0	217	7.3	144.9376627784
0	220	7.4	141.23692634897
0	223	7.5	137.57797451793
0	226	7.6	133.96340905239
0	229	7.7	130.39580015769
0	232	7.8	126.87768464985
0	235	7.9	123.41156415162
0	238	8	119.99990331375
0	241	8.1	116.64512806241
0	244	8.2	113.34962387418
0	247	8.3	110.11573407985
0	250	8.4	106.9457581981
0	253	8.5	103.84195030042
0	256	8.6	100.80651740832
0	259	8.7	97.841617923927
0	262	8.8	94.94936009528
0	265	8.9	92.131800517177
0	268	9	89.390942668813
0	271	9.1	86.728735489161
0	274	9.2	84.147071991143
0	277	9.3	81.64778791557
0	280	9.4	79.232660425801
0	283	9.5	76.903406844057
0	286	9.6	74.661683430289
0	289	9.7	72.50908420446
0	292	9.8	70.44713981309
0	295	9.9	68.477316440858
0	298	10	66.601014768044
0	301	10.1	64.81956897455
0	304	10.2	63.134245791206
0	307	10.3	61.546243599036
0	310	10.4	60.056691577126
0	313	10.5	58.666648899701
0	316	10.6	57.37710398298
0	319	10.7	56.188973782341
0	322	10.8	55.103103140304
0	325	10.9	54.120264185791
0	328	11	53.241155785087
0	331	11.1	52.466403044899
0	334	11.2	51.796556867862
0	337	11.3	51.232093560808
0	340	11.4	50.773414496081
0	343	11.5	50.420845826132
0	346	11.6	50.174638251603
0	349	11.7	50.034966843061
0	352	11.8	50.00193091651
0	355	11.9	50.075553962773
0	358	12	50.255783630787
0	361	12.1	50.542491764826
0	364	12.2	50.935474495632
0	367	12.3	51.434452385379
0	370	12.4	52.039070626371
0	373	12.5	52.748899293338
0	376	12.6	53.563433649139
0	379	12.7	54.482094503665
0	382	12.8	55.504228625689
0	385	12.9	56.62910920735
0	388	13	57.855936380969
0	391	13.1	59.183837787809
0	394	13.2	60.611869198381
0	397	13.3	62.139015183859
0	400	13.4	63.764189838115
0	403	13.5	65.486237549878
0	406	13.6	67.303933824452
0	409	13.7	69.215986154416
0	412	13.8	71.221034938685
0	415	13.9	73.317654449279
0	418	14	75.504353845119
0	421	14.1	77.779578232113
0	424	14.2	80.141709768794
0	427	14.3	82.589068816719
0	430	14.4	85.119915134804
0	433	14.5	87.73244911676
0	436	14.6	90.424813070733
0	439	14.7	93.195092540253
0	442	14.8	96.041317665546
0	445	14.9	98.961464584237
0	448	15	101.95345687046
0	451	15.1	105.01516701133
0	454	15.2	108.14441791977
0	457	15.3	111.33898448255
0	460	15.4	114.5965951425
0	463	15.5	117.91493351377
0	466	15.6	121.2916400289
0	469	15.7	124.72431361665
0	472	15.8	128.21051340936
0	475	15.9	131.7477604785
0	478	16	135.33353959746
0	481	16.1	138.96530102995
0	484	16.2	142.6404623431
0	487	16.3	146.35641024374
0	490	16.4	150.11050243661
0	493	16.5	153.90006950324
0	496	16.6	157.72241680006
0	499	16.7	161.57482637452
0	502	16.8	165.45455889769
0	505	16.9	169.35885561216
0	508	17	173.28494029368
0	511	17.1	177.23002122525
0	514	17.2	181.19129318222
0	517	17.3	185.16593942701
0	520	17.4	189.15113371201
0	523	17.5	193.14404228921
0	526	17.6	197.14182592522
0	529	17.7	201.14164192012
0	532	17.8	205.14064612888
0	535	17.9	209.13599498368
0	538	18	213.12484751592
0	541	18.1	217.10436737632
0	544	18.2	221.07172485179
0	547	18.3	225.02409887753
0	550	18.4	228.958679043
0	553	18.5	232.87266759033
0	556	18.6	236.7632814037
0	559	18.7	240.62775398835
0	562	18.8	244.46333743773
0	565	18.9	248.26730438746
0	568	19	252.03694995466
0	571	19.1	255.76959366135
0	574	19.2	259.46258134039
0	577	19.3	263.11328702283
0	580	19.4	266.71911480514
0	583	19.5	270.27750069506
0	586	19.6	273.78591443479
0	589	19.7	277.24186130018
0	592	19.8	280.64288387464
0	595	19.9	283.98656379656
0	598	20	287.27052347888
0	601	20.1	290.49242779976
0	604	20.2	293.64998576302
0	607	20.3	296.74095212715
0	610	20.4	299.76312900189
0	613	20.5	302.71436741103
0	616	20.6	305.5925688205
0	619	20.7	308.39568663059
0	622	20.8	311.1217276312
0	625	20.9	313.76875341915
0	628	21	316.33488177654
0	631	21.1	318.81828800911
0	634	21.2	321.21720624376
0	637	21.3	323.52993068414
0	640	21.4	325.75481682368
0	643	21.5	327.89028261488
0	646	21.6	329.93480959426
0	649	21.7	331.88694396213
0	652	21.8	333.74529761631
0	655	21.9	335.50854913918
0	658	22	337.1754447373
0	661	22.1	338.74479913291
0	664	22.2	340.2154964068
0	667	22.3	341.58649079178
0	670	22.4	342.85680741628
0	673	22.5	344.02554299755
0	676	22.6	345.091866484
0	679	22.7	346.05501964608
0	682	22.8	346.91431761545
0	685	22.9	347.66914937199
0	688	23	348.31897817826
0	691	23.1	348.86334196117
0	694	23.2	349.30185364051
0	697	23.3	349.63420140423
0	700	23.4	349.86014893016
0	703	23.5	349.97953555401
0	706	23.6	349.99227638367
0	709	23.7	349.89836235953
0	712	23.8	349.69786026092
0	715	23.9	349.39091265869
0	718	24	348.97773781373
0	721	24.1	348.45862952187
0	724	24.2	347.83395690489
0	727	24.3	347.10416414813
0	730	24.4	346.26977018456
0	733	24.5	345.33136832585
0	736	24.6	344.28962584043
0	739	24.7	343.14528347907
0	742	24.8	341.89915494811
0	745	24.9	340.55212633088
0	748	25	339.10515545765
0	751	25.1	337.55927122449
0	754	25.2	335.91557286174
0	757	25.3	334.17522915228
0	760	25.4	332.33947760054
0	763	25.5	330.40962355247
0	766	25.6	328.38703926743
0	769	25.7	326.27316294233
0	772	25.8	324.06949768904
0	775	25.9	321.77761046555
0	778	26	319.39913096175
0	781	26.1	316.93575044061
0	784	26.2	314.3892205356
0	787	26.3	311.76135200511
0	790	26.4	309.05401344492
0	793	26.5	306.26912995948
0	796	26.6	303.40868179302
0	799	26.7	300.47470292148
0	802	26.8	297.4692796062
0	805	26.9	294.39454891046
0	808	27	291.25269717984
0	811	27.1	288.04595848762
0	814	27.2	284.7766130462
0	817	27.3	281.44698558568
0	820	27.4	278.05944370082
0	823	27.5	274.61639616757
0	826	27.6	271.12029123018
0	829	27.7	267.5736148604
0	832	27.8	263.97888898976
0	835	27.9	260.33866971629
0	838	28	256.65554548695
0	841	28.1	252.93213525712
0	844	28.2	249.17108662827
0	847	28.3	245.37507396539
0	850	28.4	241.54679649531
0	853	28.5	237.68897638734
0	856	28.6	233.80435681767
0	859	28.7	229.89570001874
0	862	28.8	225.96578531513
0	865	28.9	222.01740714724
0	868	29	218.05337308428
0	871	29.1	214.07650182787
0	874	29.2	210.08962120778
0	877	29.3	206.09556617111
0	880	29.4	202.09717676647
0	883	29.5	198.09729612449
0	886	29.6	194.09876843621
0	889	29.7	190.10443693059
0	892	29.8	186.11714185283
0	895	29.9	182.13971844475
0	898	30	178.17499492871
0	901	30.1	174.2257904966
0	904	30.2	170.29491330514
0	907	30.3	166.38515847916
0	910	30.4	162.49930612398
0	913	30.5	158.64011934865
0	916	30.6	154.81034230115
0	919	30.7	151.0126982171
0	922	30.8	147.24988748339
0	925	30.9	143.52458571796
0	928	31	139.83944186732
0	931	31.1	136.19707632291
0	934	31.2	132.60007905787
0	937	31.3	129.05100778534
0	940	31.4	125.55238613979
0	943	31.5	122.1067018825
0	946	31.6	118.71640513264
0	949	31.7	115.38390662504
0	952	31.8	112.11157599599
0	955	31.9	108.90174009827
0	958	32	105.75668134658
0	961	32.1	102.67863609462
0	964	32.2	99.669793044869
0	967	32.3	96.732291692255
0	970	32.4	93.868220802848
0	973	32.5	91.079616928591
0	976	32.6	88.368462959176
0	979	32.7	85.736686712069
0	982	32.8	83.186159561701
0	985	32.9	80.718695108791
0	988	33	78.336047890752
0	991	33.1	76.039912134092
0	994	33.2	73.831920549703
0	997	33.3	71.713643171893
0	1000	33.4	69.686586241979
0	1003	33.5	67.752191137249
0	1006	33.6	65.911833346041
0	1009	33.7	64.166821489679
0	1012	33.8	62.518396391951
0	1015	33.9	60.967730196795
0	1018	34	59.515925534829
0	1021	34.1	58.164014739303
0	1024	34.2	56.912959112036
0	1027	34.3	55.763648239868
0	1030	34.4	54.716899362098
0	1033	34.5	53.773456789375
0	1036	34.6	52.933991374441
0	1039	34.7	52.199100035105
0	1042	34.8	51.569305329795
0	1045	34.9	51.045055085987
0	1048	35	50.626722081761
0	1051	35.1	50.314603780738
0	1054	35.2	50.108922120557
0	1057	35.3	50.009823355064
0	1060	35.4	50.017377950317
0	1063	35.5	50.131580534478
0	1066	35.6	50.352349901632
0	1069	35.7	50.679529069532
0	1072	35.8	51.112885391224
0	1075	35.9	51.652110720474
0	1078	36	52.296821630881
0	1081	36.1	53.04655968852
0	1084	36.2	53.900791777922
0	1087	36.3	54.858910481152
0	1090	36.4	55.920234509729
0	1093	36.5	57.084009189067
0	1096	36.6	58.349406995101
0	1099	36.7	59.715528142713
0	1102	36.8	61.181401225543
0	1105	36.9	62.745983906725
0	1108	37	64.40816366006
0	1111	37.1	66.166758561099
0	1114	37.2	68.020518127573
0	1117	37.3	69.968124208572
0	1120	37.4	72.008191921842
0	1123	37.5	74.139270638532
0	1126	37.6	76.359845014688
0	1129	37.7	78.668336068771
0	1132	37.8	81.06310230442
0	1135	37.9	83.54244087767
0	1138	38	86.104588807788
0	1141	38.1	88.747724230881
0	1144	38.2	91.469967695358
0	1147	38.3	94.269383498359
0	1150	38.4	97.143981062164
0	1153	38.5	100.09171634964
0	1156	38.6	103.11049331768
0	1159	38.7	106.19816540766
0	1162	38.8	109.35253707175
0	1165	38.9	112.57136533414
0	1168	39	115.85236138592
0	1171	39.1	119.1931922126
0	1174	39.2	122.59148225304
0	1177	39.3	126.04481508863
0	1180	39.4	129.55073516154
0	1183	39.5	133.1067495208
0	1186	39.6	136.71032959492
0	1189	39.7	140.35891298993
0	1192	39.8	144.04990531138
0	1195	39.9	147.78068200915
0	1198	40	151.54859024369
0	1201	40.1	155.35095077237
0	1204	40.2	159.1850598546
0	1207	40.3	163.04819117436
0	1210	40.4	166.93759777885
0	1213	40.5	170.8505140317
0	1216	40.6	174.78415757958
0	1219	40.7	178.73573133061
0	1222	40.8	182.70242544331
0	1225	40.9	186.68141932457
0	1228	41	190.6698836353
0	1231	41.1	194.66498230229
0	1234	41.2	198.66387453483
0	1237	41.3	202.66371684472
0	1240	41.4	206.66166506822
0	1243	41.5	210.65487638839
0	1246	41.6	214.64051135655
0	1249	41.7	218.61573591136
0	1252	41.8	222.57772339396
0	1255	41.9	226.52365655799
0	1258	42	230.45072957281
0	1261	42.1	234.35615001866
0	1264	42.2	238.23714087222
0	1267	42.3	242.09094248132
0	1270	42.4	245.91481452722
0	1273	42.5	249.70603797314
0	1276	42.6	253.46191699772
0	1279	42.7	257.17978091194
0	1282	42.8	260.85698605811
0	1285	42.9	264.49091768976
0	1288	43	268.07899183084
0	1291	43.1	271.61865711318
0	1294	43.2	275.10739659062
0	1297	43.3	278.54272952876
0	1300	43.4	281.92221316894
0	1303	43.5	285.2434444652
0	1306	43.6	288.50406179302
0	1309	43.7	291.70174662858
0	1312	43.8	294.83422519742
0	1315	43.9	297.89927009122
0	1318	44	300.89470185166
0	1321	44.1	303.81839052016
0	1324	44.2	306.66825715241
0	1327	44.3	309.44227529668
0	1330	44.4	312.13847243475
0	1333	44.5	314.75493138447
0	1336	44.6	317.28979166309
0	1339	44.7	319.74125081009
0	1342	44.8	322.10756566896
0	1345	44.9	324.3870536266
0	1348	45	326.57809380987
0	1351	45.1	328.67912823808
0	1354	45.2	330.68866293082
0	1357	45.3	332.60526897034
0	1360	45.4	334.42758351754
0	1363	45.5	336.1543107811
0	1366	45.6	337.78422293883
0	1369	45.7	339.31616101077
0	1372	45.8	340.74903568329
0	1375	45.9	342.08182808367
0	1378	46	343.31359050459
0	1381	46.1	344.443447078
0	1384	46.2	345.47059439797
0	1387	46.3	346.39430209189
0	1390	46.4	347.21391333988
0	1393	46.5	347.92884534183
0	1396	46.6	348.53858973176
0	1399	46.7	349.04271293936
0	1402	46.8	349.44085649826
0	1405	46.9	349.73273730092
0	1408	47	349.91814779997
0	1411	47.1	349.99695615575
0	1414	47.2	349.96910633008
0	1417	47.3	349.83461812611
0	1420	47.4	349.59358717424
0	1423	47.5	349.24618486408
0	1426	47.6	348.79265822265
0	1429	47.7	348.23332973867
0	1432	47.8	347.56859713327
0	1435	47.9	346.79893307717
0	1438	48	345.92488485462
0	1441	48.1	344.94707397417
0	1444	48.2	343.86619572681
0	1447	48.3	342.68301869152
0	1450	48.4	341.39838418878
0	1453	48.5	340.01320568232
0	1456	48.6	338.52846812961
0	1459	48.7	336.94522728145
0	1462	48.8	335.26460893127
0	1465	48.9	333.48780811465
0	1468	49	331.61608825951
0	1471	49.1	329.65078028777
0	1474	49.2	327.59328166895
0	1477	49.3	325.44505542647
0	1480	49.4	323.20762909736
0	1483	49.5	320.88259364607
0	1486	49.6	318.47160233315
0	1489	49.7	315.97636953973
0	1492	49.8	313.39866954842
0	1495	49.9	310.74033528171
0	1498	50	308.00325699861
0	1501	50.1	305.18938095056
0	1504	50.2	302.30070799752
0	1507	50.3	299.33929218518
0	1510	50.4	296.30723928445
0	1513	50.5	293.20670529407
0	1516	50.6	290.03989490756
0	1519	50.7	286.80905994551
0	1522	50.8	283.51649775444
0	1525	50.9	280.16454957314
0	1528	51	276.75559886797
0	1531	51.1	273.29206963801
0	1534	51.2	269.77642469142
0	1537	51.3	266.21116389424
0	1540	51.4	262.5988223928
0	1543	51.5	258.94196881106
0	1546	51.6	255.24320342414
0	1549	51.7	251.50515630934
0	1552	51.8	247.73048547598
0	1555	51.9	243.92187497538
0	1558	52	240.08203299227
0	1561	52.1	236.21368991917
0	1564	52.2	232.31959641479
0	1567	52.3	228.40252144821
0	1570	52.4	224.4652503299
0	1573	52.5	220.51058273118
0	1576	52.6	216.54133069347
0	1579	52.7	212.56031662875
0	1582	52.8	208.5703713126
0	1585	52.9	204.57433187133
0	1588	53	200.57503976459
0	1591	53.1	196.57533876492
0	1594	53.2	192.5780729356
0	1597	53.3	188.58608460832
0	1600	53.4	184.60221236213
0	1603	53.5	180.62928900497
0	1606	53.6	176.67013955936
0	1609	53.7	172.72757925365
0	1612	53.8	168.80441152012
0	1615	53.9	164.90342600163
0	1618	54	161.02739656794
0	1621	54.1	157.17907934331
0	1624	54.2	153.36121074673
0	1627	54.3	149.57650554608
0	1630	54.4	145.82765492781
0	1633	54.5	142.11732458327
0	1636	54.6	138.44815281325
0	1639	54.7	134.82274865194
0	1642	54.8	131.24369001176
0	1645	54.9	127.71352185026
0	1648	55	124.23475436047
0	1651	55.1	120.80986118603
0	1654	55.2	117.44127766221
0	1657	55.3	114.13139908422
0	1660	55.4	110.88257900403
0	1663	55.5	107.69712755679
0	1666	55.6	104.57730981819
0	1669	55.7	101.52534419382
0	1672	55.8	98.543400841747
0	1675	55.9	95.633600129356
0	1678	56	92.798011125652
0	1681	56.1	90.038650129994
0	1684	56.2	87.357479238369
0	1687	56.3	84.756404948206
0	1690	56.4	82.237276802729
0	1693	56.5	79.801886075799
0	1696	56.6	77.451964498196
0	1699	56.7	75.189183026242
0	1702	56.8	73.015150653631
0	1705	56.9	70.931413267329
0	1708	57	68.939452548338
0	1711	57.1	67.040684918118
0	1714	57.2	65.236460531417
0	1717	57.3	63.528062316214
0	1720	57.4	61.916705061474
0	1723	57.5	60.403534553342
0	1726	57.6	58.989626760417
0	1729	57.7	57.67598706866
0	1732	57.8	56.463549566497
0	1735	57.9	55.353176380615
0	1738	58	54.345657062935
0	1741	58.1	53.441708029183
0	1744	58.2	52.641972049469
0	1747	58.3	51.947017791234
0	1750	58.4	51.357339414888
0	1753	58.5	50.873356222428
0	1756	58.6	50.495412359285
0	1759	58.7	50.223776569615
0	1762	58.8	50.058642005197
0	1765	58.9	50.000126088099
0	1768	59	50.048270427172
0	1771	59.1	50.20304078847
0	1774	59.2	50.464327119593
0	1777	59.3	50.831943627937
0	1780	59.4	51.305628912809
0	1783	59.5	51.885046151301
0	1786	59.6	52.569783337792
0	1789	59.7	53.359353576916
0	1792	59.8	54.253195429773
0	1795	59.9	55.250673313156
0	1798	60	56.351077951492
0	1801	60.1	57.553626881186
0	1804	60.2	58.857465007005
0	1807	60.3	60.261665210115
0	1810	60.4	61.76522900732
0	1813	60.5	63.367087261056
0	1816	60.6	65.06610093962
0	1819	60.7	66.861061927103
0	1822	60.8	68.750693882441
0	1825	60.9	70.733653146981
0	1828	61	72.808529699916
0	1831	61.1	74.97384816091
0	1834	61.2	77.228068839188
0	1837	61.3	79.569588828371
0	1840	61.4	81.996743146247
0	1843	61.5	84.507805918689
0	1846	61.6	87.100991606873
0	1849	61.7	89.774456276916
0	1852	61.8	92.526298911044
0	1855	61.9	95.354562759343
0	1858	62	98.257236731145
0	1861	62.1	101.23225682505
0	1864	62.2	104.27750759659
0	1867	62.3	107.39082366241
0	1870	62.4	110.56999124006
0	1873	62.5	113.81274972213
0	1876	62.6	117.11679328367
0	1879	62.7	120.47977252182
0	1882	62.8	123.89929612639
0	1885	62.9	127.37293258025
0	1888	63	130.8982118883
0	1891	63.1	134.47262733379
0	1894	63.2	138.09363726081
0	1897	63.3	141.75866688156
0	1900	63.4	145.46511010719
0	1903	63.5	149.21033140092
0	1906	63.6	152.9916676521
0	1909	63.7	156.80643006985
0	1912	63.8	160.65190609498
0	1915	63.9	164.52536132879
0	1918	64	168.42404147747
0	1921	64.1	172.34517431051
0	1924	64.2	176.28597163204
0	1927	64.3	180.24363126334
0	1930	64.4	184.21533903546
0	1933	64.5	188.19827079022
0	1936	64.6	192.18959438845
0	1939	64.7	196.18647172376
0	1942	64.8	200.18606074071
0	1945	64.9	204.18551745563
0	1948	65	208.18199797897
0	1951	65.1	212.1726605374
0	1954	65.2	216.15466749462
0	1957	65.3	220.12518736903
0	1960	65.4	224.08139684715
0	1963	65.5	228.02048279115
0	1966	65.6	231.93964423926
0	1969	65.7	235.83609439737
0	1972	65.8	239.70706262066
0	1975	65.9	243.54979638375
0	1978	66	247.36156323789
0	1981	66.1	251.13965275393
0	1984	66.2	254.88137844965
0	1987	66.3	258.5840797
0	1990	66.4	262.24512362902
0	1993	66.5	265.86190698195
0	1996	66.6	269.43185797638
0	1999	66.7	272.95243813092
0	2002	66.8	276.42114407026
0	2005	66.9	279.83550930523
0	2008	67	283.19310598665
0	2011	67.1	286.49154663171
0	2014	67.2	289.7284858216
0	2017	67.3	292.9016218693
0	2020	67.4	296.00869845622
0	2023	67.5	299.04750623661
0	2026	67.6	302.01588440854
0	2029	67.7	304.9117222504
0	2032	67.8	307.73296062175
0	2035	67.9	310.47759342752
0	2038	68	313.14366904448
0	2041	68.1	315.72929170898
0	2044	68.2	318.23262286497
0	2047	68.3	320.65188247134
0	2050	68.4	322.98535026765
0	2053	68.5	325.23136699735
0	2056	68.6	327.38833558764
0	2059	68.7	329.45472228506
0	2062	68.8	331.42905774617
0	2065	68.9	333.30993808227
0	2068	69	335.09602585772
0	2071	69.1	336.78605104091
0	2074	69.2	338.37881190737
0	2077	69.3	339.87317589428
0	2080	69.4	341.26808040577
0	2083	69.5	342.56253356853
0	2086	69.6	343.75561493706
0	2089	69.7	344.84647614824
0	2092	69.8	345.83434152449
0	2095	69.9	346.71850862541
0	2098	70	347.49834874719
0	2101	70.1	348.17330736973
0	2104	70.2	348.7429045509
0	2107	70.3	349.2067352678
0	2110	70.4	349.56446970482
0	2113	70.5	349.81585348808
0	2116	70.6	349.96070786639
0	2119	70.7	349.99892983828
0	2122	70.8	349.93049222531
0	2125	70.9	349.75544369132
0	2128	71	349.47390870792
0	2131	71.1	349.08608746587
0	2134	71.2	348.59225573285
0	2137	71.3	347.99276465726
0	2140	71.4	347.28804051862
0	2143	71.5	346.47858442439
0	2146	71.6	345.56497195369
0	2149	71.7	344.54785274799
0	2152	71.8	343.42795004921
0	2155	71.9	342.2060601854
0	2158	72	340.88305200453
0	2161	72.1	339.45986625668
0	2164	72.2	337.93751492506
0	2167	72.3	336.31708050648
0	2170	72.4	334.59971524158
0	2173	72.5	332.78664029549
0	2176	72.6	330.87914488958
0	2179	72.7	328.87858538462
0	2182	72.8	326.78638431642
0	2185	72.9	324.60402938423
0	2188	73	322.33307239294
0	2191	73.1	319.9751281496
0	2194	73.2	317.53187331519
0	2197	73.3	315.00504521243
0	2200	73.4	312.39644059037
0	2203	73.5	309.70791434682
0	2206	73.6	306.94137820938
0	2209	73.7	304.09879937605
0	2212	73.8	301.18219911644
0	2215	73.9	298.1936513345
0	2218	74	295.13528109383
0	2221	74.1	292.00926310661
0	2224	74.2	288.81782018724
0	2227	74.3	285.56322167176
0	2230	74.4	282.24778180419
0	2233	74.5	278.87385809095
0	2236	74.6	275.4438496245
0	2239	74.7	271.96019537744
0	2242	74.8	268.42537246821
0	2245	74.9	264.84189439971
0	2248	75	261.21230927201
0	2251	75.1	257.53919797047
0	2254	75.2	253.82517233056
0	2257	75.3	250.07287328069
0	2260	75.4	246.28496896427
0	2263	75.5	242.46415284255
0	2266	75.6	238.61314177932
0	2269	75.7	234.73467410904
0	2272	75.8	230.83150768975
0	2275	75.9	226.90641794197
0	2278	76	222.96219587524
0	2281	76.1	219.00164610349
0	2284	76.2	215.02758485078
0	2287	76.3	211.04283794875
0	2290	76.4	207.05023882729
0	2293	76.5	203.05262649975
0	2296	76.6	199.05284354423
0	2299	76.7	195.05373408227
0	2302	76.8	191.05814175654
0	2305	76.9	187.06890770876
0	2308	77	183.08886855948
0	2311	77.1	179.12085439105
0	2314	77.2	175.16768673524
0	2317	77.3	171.23217656689
0	2320	77.4	167.31712230518
0	2323	77.5	163.42530782373
0	2326	77.6	159.55950047104
0	2329	77.7	155.7224491028
0	2332	77.8	151.91688212716
0	2335	77.9	148.14550556473
0	2338	78	144.41100112435
0	2341	78.1	140.71602429628
0	2344	78.2	137.06320246387
0	2347	78.3	133.45513303541
0	2350	78.4	129.8943815971
0	2353	78.5	126.38348008881
0	2356	78.6	122.92492500367
0	2359	78.7	119.52117561289
0	2362	78.8	116.17465221705
0	2365	78.9	112.8877344251
0	2368	79	109.6627594623
0	2371	79.1	106.50202050828
0	2374	79.2	103.40776506644
0	2377	79.3	100.38219336582
0	2380	79.4	97.42745679657
0	2383	79.5	94.545656380192
0	2386	79.6	91.738841275545
0	2389	79.7	89.00900732176
0	2392	79.8	86.358095619062
0	2395	79.9	83.787991148509
0	2398	80	81.300521431647
0	2401	80.1	78.897455231011
0	2404	80.2	76.580501292413
0	2407	80.3	74.35130712991
0	2410	80.4	72.211457854303
0	2413	80.5	70.162475046018
0	2416	80.6	68.205815673153
0	2419	80.7	66.342871055479
0	2422	80.8	64.57496587511
0	2425	80.9	62.903357234565
0	2428	81	61.329233762882
0	2431	81.1	59.85371477042
0	2434	81.2	58.477849452954
0	2437	81.3	57.202616145619
0	2440	81.4	56.028921627253
0	2443	81.5	54.957600475611
0	2446	81.6	53.989414473924
0	2449	81.7	53.125052069215
0	2452	81.8	52.365127882772
0	2455	81.9	51.710182273106
0	2458	82	51.160680951717
0	2461	82.1	50.717014651946
0	2464	82.2	50.379498851132
0	2467	82.3	50.148373546289
0	2470	82.4	50.023803083449
0	2473	82.5	50.005876040804
0	2476	82.6	50.094605165718
0	2479	82.7	50.289927365663
0	2482	82.8	50.591703753083
0	2485	82.9	50.999719744152
0	2488	83	51.513685211358
0	2491	83.1	52.133234689806
0	2494	83.2	52.857927637085
0	2497	83.3	53.687248746525
0	2500	83.4	54.620608313618
0	2503	83.5	55.657342655335
0	2506	83.6	56.796714582053
0	2509	83.7	58.037913921748
0	2512	83.8	59.380058096081
0	2515	83.9	60.822192747974
0	2518	84	62.363292420221
0	2521	84.1	64.002261284663
0	2524	84.2	65.737933921393
0	2527	84.3	67.569076147455
0	2530	84.4	69.494385894426
0	2533	84.5	71.512494134286
0	2536	84.6	73.62196585288
0	2539	84.7	75.821301070324
0	2542	84.8	78.108935907583
0	2545	84.9	80.483243698506
0	2548	85	82.942536146492
0	2551	85.1	85.485064524988
0	2554	85.2	88.109020920953
0	2557	85.3	90.812539520409
0	2560	85.4	93.593697935164
0	2563	85.5	96.450518569764
0	2566	85.6	99.380970027695
0	2569	85.7	102.38296855585
0	2572	85.8	105.45437952623
0	2575	85.9	108.59301895378
0	2578	86	111.79665504939
0	2581	86.1	115.06300980684
0	2584	86.2	118.38976062261
0	2587	86.3	121.77454194741
0	2590	86.4	125.21494696827
0	2593	86.5	128.70852931993
0	2596	86.6	132.25280482437
0	2599	86.7	135.84525325725
0	2602	86.8	139.48332013995
0	2605	86.9	143.16441855601
0	2608	87	146.88593099055
0	2611	87.1	150.64521119154
0	2614	87.2	154.43958605149
0	2617	87.3	158.26635750816
0	2620	87.4	162.1228044631
0	2623	87.5	166.00618471654
0	2626	87.6	169.91373691727
0	2629	87.7	173.84268252617
0	2632	87.8	177.79022779192
0	2635	87.9	181.75356573757
0	2638	88	185.72987815648
0	2641	88.1	189.71633761626
0	2644	88.2	193.71010946928
0	2647	88.3	197.70835386829
0	2650	88.4	201.70822778577
0	2653	88.5	205.70688703547
0	2656	88.6	209.70148829487
0	2659	88.7	213.68919112695
0	2662	88.8	217.66715999998
0	2665	88.9	221.6325663037
0	2668	89	225.58259036074
0	2671	89.1	229.51442343154
0	2674	89.2	233.4252697116
0	2677	89.3	237.31234831949
0	2680	89.4	241.17289527421
0	2683	89.5	245.0041654606
0	2686	89.6	248.80343458131
0	2689	89.7	252.56800109396
0	2692	89.8	256.2951881321
0	2695	89.9	259.98234540867
0	2698	90	263.62685110055
0	2701	90.1	267.22611371281
0	2704	90.2	270.77757392149
0	2707	90.3	274.27870639342
0	2710	90.4	277.72702158194
0	2713	90.5	281.12006749712
0	2716	90.6	284.45543144927
0	2719	90.7	287.73074176459
0	2722	90.8	290.94366947154
0	2725	90.9	294.0919299569
0	2728	91	297.17328459034
0	2731	91.1	300.18554231618
0	2734	91.2	303.12656121142
0	2737	91.3	305.99425000877
0	2740	91.4	308.78656958371
0	2743	91.5	311.50153440443
0	2746	91.6	314.13721394368
0	2749	91.7	316.69173405152
0	2752	91.8	319.16327828796
0	2755	91.9	321.5500892146
0	2758	92	323.85046964422
0	2761	92.1	326.06278384769
0	2764	92.2	328.18545871701
0	2767	92.3	330.21698488396
0	2770	92.4	332.1559177933
0	2773	92.5	334.00087873001
0	2776	92.6	335.75055579961
0	2779	92.7	337.40370486102
0	2782	92.8	338.95915041124
0	2785	92.9	340.4157864212
0	2788	93	341.77257712223
0	2791	93.1	343.02855774256
0	2794	93.2	344.18283519334
0	2797	93.3	345.23458870369
0	2800	93.4	346.18307040433
0	2803	93.5	347.02760585934
0	2806	93.6	347.76759454577
0	2809	93.7	348.40251028062
0	2812	93.8	348.93190159502
0	2815	93.9	349.35539205522
0	2818	94	349.67268053031
0	2821	94.1	349.88354140628
0	2824	94.2	349.98782474652
0	2827	94.3	349.98545639837
0	2830	94.4	349.8764380459
0	2833	94.5	349.66084720867
0	2836	94.6	349.33883718664
0	2839	94.7	348.91063695114
0	2842	94.8	348.37655098208
0	2845	94.9	347.73695905141
0	2848	95	346.99231595312
0	2851	95.1	346.1431511798
0	2854	95.2	345.19006854617
0	2857	95.3	344.13374575974
0	2860	95.4	342.97493393885
0	2863	95.5	341.71445707863
0	2866	95.6	340.35321146507
0	2869	95.7	338.8921650377
0	2872	95.8	337.33235670128
0	2875	95.9	335.67489558714
0	2878	96	333.92096026444
0	2881	96.1	332.07179790217
0	2884	96.2	330.1287233823
0	2887	96.3	328.09311836485
0	2890	96.4	325.96643030538
0	2893	96.5	323.75017142579
0	2896	96.6	321.44591763898
0	2899	96.7	319.05530742835
0	2902	96.8	316.58004068263
0	2905	96.9	314.0218774872
0	2908	97	311.38263687254
0	2911	97.1	308.66419552076
0	2914	97.2	305.86848643115
0	2917	97.3	302.99749754571
0	2920	97.4	300.05327033556
0	2923	97.5	297.0378983493
0	2926	97.6	293.95352572439
0	2929	97.7	290.80234566252
0	2932	97.8	287.58659887005
0	2935	97.9	284.30857196473
0	2938	98	280.97059584981
0	2941	98.1	277.57504405651
0	2944	98.2	274.12433105637
0	2947	98.3	270.62091054434
0	2950	98.4	267.06727369402
0	2953	98.5	263.46594738633
0	2956	98.6	259.81949241267
0	2959	98.7	256.13050165402
0	2962	98.8	252.40159823725
0	2965	98.9	248.63543366987
0	2968	99	244.83468595467
0	2971	99.1	241.00205768541
0	2974	99.2	237.14027412513
0	2977	99.3	233.2520812683
0	2980	99.4	229.34024388822
0	2983	99.5	225.40754357107
0	2986	99.6	221.45677673804
0	2989	99.7	217.49075265682
0	2992	99.8	213.51229144408
0	2995	99.9	209.52422206016
0	2998	100	205.52938029744
0	2998	100	205.52938029744
0	3004	100.1	201.53060676397
0	3007	100.2	197.53074486351
0	3010	100.3	193.53263877376
0	3013	100.4	189.53913142392
0	3016	100.5	185.55306247314
0	3019	100.6	181.57726629138
0	3022	100.7	177.61456994394
0	3025	100.8	173.66779118124
0	3028	100.9	169.73973643521
0	3031	101	165.83319882368
0	3034	101.1	161.95095616435
0	3037	101.2	158.09576899952
0	3040	101.3	154.27037863315
0	3043	101.4	150.47750518165
0	3046	101.5	146.71984563964
0	3049	101.6	143.00007196222
0	3052	101.7	139.32082916505
0	3055	101.8	135.68473344353
1	0	0	200
1	1	0.1	203.99952594278
1	4	0.2	207.99620794676
1	7	0.3	211.98720409538
1	10	0.4	215.96967651509
1	13	0.5	219.94079339335
1	16	0.6	223.89773099214
1	19	0.7	227.83767565591
1	22	0.8	231.75782581227
1	25	0.9	235.65539396407
1	28	1	239.52760867153
1	31	1.1	243.37171652292
1	34	1.2	247.18498409242
1	37	1.3	250.96469988377
1	40	1.4	254.70817625837
1	43	1.5	258.4127513463
1	46	1.6	262.07579093916
1	49	1.7	265.69469036317
1	52	1.8	269.26687633122
1	55	1.9	272.78980877271
1	58	2	276.2609826397
1	61	2.1	279.67792968813
1	64	2.2	283.038220233
1	67	2.3	286.33946487595
1	70	2.4	289.57931620436
1	73	2.5	292.75547046046
1	76	2.6	295.86566917952
1	79	2.7	298.90770079572
1	82	2.8	301.87940221478
1	85	2.9	304.77866035202
1	88	3	307.60341363493
1	91	3.1	310.3516534691
1	94	3.2	313.02142566647