file 5047 1431698586                                            
version 2
run ConstSpeedMobility1-attack-0-20150515-16:02:28-3448
attr configname ConstSpeedMobility1-attack
attr datetime 20150515-16:02:28
attr experiment ConstSpeedMobility1-attack
attr inifile omnetpp.ini
attr iterationvars ""
attr iterationvars2 $repetition=0
attr measurement ""
attr network MobileNetwork
attr processid 3448
attr repetition 0
attr replication #0
attr resultdir results
attr runnumber 0
attr seedset 0

vector 0  MobileNetwork.host[0]  coordX:vector  ETV
attr interpolationmode  linear
attr source  xCoord(mobilityPos(mobilityStateChanged))
attr title  "coord X, vector"
vector 1  MobileNetwork.host[0]  coordY:vector  ETV
attr interpolationmode  linear
attr source  yCoord(mobilityPos(mobilityStateChanged))
attr title  "coord Y, vector"
vector 2  MobileNetwork.host[1]  coordX:vector  ETV
attr interpolationmode  linear
attr source  xCoord(mobilityPos(mobilityStateChanged))
attr title  "coord X, vector"
vector 3  MobileNetwork.host[1]  coordY:vector  ETV
attr interpolationmode  linear
attr source  yCoord(mobilityPos(mobilityStateChanged))
attr title  "coord Y, vector"
0	1098 1022 0 54 0 23.856862631952 30 49.928456505726 511.64726129733 8970.2218827643 3208270.3985104
1	2120 1024 0 54 0 23.856862631952 30 13.18077511124 338.90069490299 4348.0068390225 909923.25214324
2	3144 944 0 53 0 22.90108729522 28 12.70634196816 506.55944645405 6249.9779727599 1876853.9458984
3	4088 959 0 53 0 22.90108729522 28 -198.97478812181 385.46510562301 4799.9323738084 1796925.2048751
