file 209229 1472198880                                          
version 2
run Attack_Free-0-20160826-10:07:43-9060
attr configname Attack_Free
attr datetime 20160826-10:07:43
attr experiment Attack_Free
attr inifile omnetpp.ini
attr iterationvars ""
attr iterationvars2 $repetition=0
attr measurement ""
attr network Scenario
attr processid 9060
attr repetition 0
attr replication #0
attr resultdir results
attr runnumber 0
attr seedset 0

vector 144  Scenario.open_flow_switch.tcp  tcpRcvQueueBytes  ETV
vector 131  Scenario.open_flow_switch.tcp  "advertised window"  ETV
vector 130  Scenario.open_flow_switch.tcp  "receive window"  ETV
vector 133  Scenario.open_flow_switch.tcp  "sent ack"  ETV
vector 74  Scenario.open_flow_switch.networkLayer.arp  sentReq:vector  ETV
attr title  "ARP request sent, vector"
vector 85  Scenario.open_flow_switch.eth[0].encap  encapPk:vector(packetBytes)  ETV
attr interpolationmode  none
attr source  encapPk
attr title  "packets encapsulated, vector(packetBytes)"
vector 81  Scenario.open_flow_switch.eth[0].mac  rxPkFromHL:vector(packetBytes)  ETV
attr interpolationmode  none
attr source  rxPkFromHL
attr title  "packet bytes from higher layer, vector(packetBytes)"
vector 76  Scenario.open_flow_switch.eth[0].mac  txPk:vector(packetBytes)  ETV
attr interpolationmode  none
attr source  txPk
attr title  "packets transmitted, vector(packetBytes)"
vector 94  Scenario.controller.eth[0].mac  rxPkOk:vector(packetBytes)  ETV
attr interpolationmode  none
attr source  rxPkOk
attr title  "packets received OK, vector(packetBytes)"
vector 95  Scenario.controller.eth[0].mac  passedUpPk:vector(packetBytes)  ETV
attr interpolationmode  none
attr source  packetSentToUpper
attr title  "packets passed to higher layer, vector(packetBytes)"
vector 103  Scenario.controller.eth[0].encap  decapPk:vector(packetBytes)  ETV
attr interpolationmode  none
attr source  decapPk
attr title  "packets decapsulated, vector(packetBytes)"
vector 89  Scenario.controller.networkLayer.arp  sentReply:vector  ETV
attr title  "ARP replies sent, vector"
vector 102  Scenario.controller.eth[0].encap  encapPk:vector(packetBytes)  ETV
attr interpolationmode  none
attr source  encapPk
attr title  "packets encapsulated, vector(packetBytes)"
vector 98  Scenario.controller.eth[0].mac  rxPkFromHL:vector(packetBytes)  ETV
attr interpolationmode  none
attr source  rxPkFromHL
attr title  "packet bytes from higher layer, vector(packetBytes)"
vector 93  Scenario.controller.eth[0].mac  txPk:vector(packetBytes)  ETV
attr interpolationmode  none
attr source  txPk
attr title  "packets transmitted, vector(packetBytes)"
vector 77  Scenario.open_flow_switch.eth[0].mac  rxPkOk:vector(packetBytes)  ETV
attr interpolationmode  none
attr source  rxPkOk
attr title  "packets received OK, vector(packetBytes)"
vector 78  Scenario.open_flow_switch.eth[0].mac  passedUpPk:vector(packetBytes)  ETV
attr interpolationmode  none
attr source  packetSentToUpper
attr title  "packets passed to higher layer, vector(packetBytes)"
vector 86  Scenario.open_flow_switch.eth[0].encap  decapPk:vector(packetBytes)  ETV
attr interpolationmode  none
attr source  decapPk
attr title  "packets decapsulated, vector(packetBytes)"
vector 110  Scenario.controller.tcp  "rcvd seq"  ETV
vector 111  Scenario.controller.tcp  "rcvd ack"  ETV
vector 107  Scenario.controller.tcp  "advertised window"  ETV
vector 105  Scenario.controller.tcp  "send window"  ETV
vector 120  Scenario.controller.tcp  tcpRcvQueueBytes  ETV
vector 106  Scenario.controller.tcp  "receive window"  ETV
vector 109  Scenario.controller.tcp  "sent ack"  ETV
vector 134  Scenario.open_flow_switch.tcp  "rcvd seq"  ETV
vector 135  Scenario.open_flow_switch.tcp  "rcvd ack"  ETV
vector 129  Scenario.open_flow_switch.tcp  "send window"  ETV
vector 112  Scenario.controller.tcp  "unacked bytes"  ETV
vector 108  Scenario.controller.tcp  "sent seq"  ETV
vector 137  Scenario.open_flow_switch.tcp  "rcvd dupAcks"  ETV
vector 132  Scenario.open_flow_switch.tcp  "sent seq"  ETV
vector 136  Scenario.open_flow_switch.tcp  "unacked bytes"  ETV
vector 124  Scenario.controller.tcp  "measured RTT"  ETV
vector 125  Scenario.controller.tcp  "smoothed RTT"  ETV
vector 126  Scenario.controller.tcp  RTTVAR  ETV
vector 127  Scenario.controller.tcp  RTO  ETV
vector 122  Scenario.controller.tcp  cwnd  ETV
vector 113  Scenario.controller.tcp  "rcvd dupAcks"  ETV
vector 148  Scenario.open_flow_switch.tcp  "measured RTT"  ETV
vector 149  Scenario.open_flow_switch.tcp  "smoothed RTT"  ETV
vector 150  Scenario.open_flow_switch.tcp  RTTVAR  ETV
vector 151  Scenario.open_flow_switch.tcp  RTO  ETV
vector 146  Scenario.open_flow_switch.tcp  cwnd  ETV
vector 1  Scenario.client.udpApp[0]  sentPk:vector(packetBytes)  ETV
attr interpolationmode  none
attr source  sentPk
attr title  "packets sent, vector(packetBytes)"
vector 3  Scenario.client.udp  sentPk:vector(packetBytes)  ETV
attr interpolationmode  none
attr source  sentPk
attr title  "packets sent, vector(packetBytes)"
vector 4  Scenario.client.udp  sentPk:vector(count)  ETV
attr interpolationmode  none
attr source  sentPk
attr title  "packets sent, vector(count)"
vector 9  Scenario.client.networkLayer.arp  sentReq:vector  ETV
attr title  "ARP request sent, vector"
vector 23  Scenario.client.eth[0].encap  encapPk:vector(packetBytes)  ETV
attr interpolationmode  none
attr source  encapPk
attr title  "packets encapsulated, vector(packetBytes)"
vector 19  Scenario.client.eth[0].mac  rxPkFromHL:vector(packetBytes)  ETV
attr interpolationmode  none
attr source  rxPkFromHL
attr title  "packet bytes from higher layer, vector(packetBytes)"
vector 14  Scenario.client.eth[0].mac  txPk:vector(packetBytes)  ETV
attr interpolationmode  none
attr source  txPk
attr title  "packets transmitted, vector(packetBytes)"
vector 53  Scenario.open_flow_switch.etherMAC[0]  rxPkOk:vector(packetBytes)  ETV
attr interpolationmode  none
attr source  rxPkOk
attr title  "packets received OK, vector(packetBytes)"
vector 54  Scenario.open_flow_switch.etherMAC[0]  passedUpPk:vector(packetBytes)  ETV
attr interpolationmode  none
attr source  packetSentToUpper
attr title  "packets passed to higher layer, vector(packetBytes)"
vector 68  Scenario.open_flow_switch.etherMAC[1]  rxPkFromHL:vector(packetBytes)  ETV
attr interpolationmode  none
attr source  rxPkFromHL
attr title  "packet bytes from higher layer, vector(packetBytes)"
vector 63  Scenario.open_flow_switch.etherMAC[1]  txPk:vector(packetBytes)  ETV
attr interpolationmode  none
attr source  txPk
attr title  "packets transmitted, vector(packetBytes)"
vector 41  Scenario.server.eth[0].mac  rxPkOk:vector(packetBytes)  ETV
attr interpolationmode  none
attr source  rxPkOk
attr title  "packets received OK, vector(packetBytes)"
vector 42  Scenario.server.eth[0].mac  passedUpPk:vector(packetBytes)  ETV
attr interpolationmode  none
attr source  packetSentToUpper
attr title  "packets passed to higher layer, vector(packetBytes)"
vector 50  Scenario.server.eth[0].encap  decapPk:vector(packetBytes)  ETV
attr interpolationmode  none
attr source  decapPk
attr title  "packets decapsulated, vector(packetBytes)"
vector 36  Scenario.server.networkLayer.arp  sentReply:vector  ETV
attr title  "ARP replies sent, vector"
vector 49  Scenario.server.eth[0].encap  encapPk:vector(packetBytes)  ETV
attr interpolationmode  none
attr source  encapPk
attr title  "packets encapsulated, vector(packetBytes)"
vector 45  Scenario.server.eth[0].mac  rxPkFromHL:vector(packetBytes)  ETV
attr interpolationmode  none
attr source  rxPkFromHL
attr title  "packet bytes from higher layer, vector(packetBytes)"
vector 40  Scenario.server.eth[0].mac  txPk:vector(packetBytes)  ETV
attr interpolationmode  none
attr source  txPk
attr title  "packets transmitted, vector(packetBytes)"
vector 64  Scenario.open_flow_switch.etherMAC[1]  rxPkOk:vector(packetBytes)  ETV
attr interpolationmode  none
attr source  rxPkOk
attr title  "packets received OK, vector(packetBytes)"
vector 65  Scenario.open_flow_switch.etherMAC[1]  passedUpPk:vector(packetBytes)  ETV
attr interpolationmode  none
attr source  packetSentToUpper
attr title  "packets passed to higher layer, vector(packetBytes)"
vector 57  Scenario.open_flow_switch.etherMAC[0]  rxPkFromHL:vector(packetBytes)  ETV
attr interpolationmode  none
attr source  rxPkFromHL
attr title  "packet bytes from higher layer, vector(packetBytes)"
vector 52  Scenario.open_flow_switch.etherMAC[0]  txPk:vector(packetBytes)  ETV
attr interpolationmode  none
attr source  txPk
attr title  "packets transmitted, vector(packetBytes)"
vector 15  Scenario.client.eth[0].mac  rxPkOk:vector(packetBytes)  ETV
attr interpolationmode  none
attr source  rxPkOk
attr title  "packets received OK, vector(packetBytes)"
vector 16  Scenario.client.eth[0].mac  passedUpPk:vector(packetBytes)  ETV
attr interpolationmode  none
attr source  packetSentToUpper
attr title  "packets passed to higher layer, vector(packetBytes)"
vector 24  Scenario.client.eth[0].encap  decapPk:vector(packetBytes)  ETV
attr interpolationmode  none
attr source  decapPk
attr title  "packets decapsulated, vector(packetBytes)"
vector 31  Scenario.server.udp  rcvdPk:vector(packetBytes)  ETV
attr interpolationmode  none
attr source  rcvdPk
attr title  "packets received, vector(packetBytes)"
vector 32  Scenario.server.udp  passedUpPk:vector(count)  ETV
attr interpolationmode  none
attr title  "packets passed up, vector(count)"
vector 26  Scenario.server.udpApp[0]  rcvdPk:vector(packetBytes)  ETV
attr interpolationmode  none
attr source  rcvdPk
attr title  "packets received, vector(packetBytes)"
vector 27  Scenario.server.udpApp[0]  rcvdPk:vector(count)  ETV
attr interpolationmode  none
attr source  rcvdPk
attr title  "packets received, vector(count)"
vector 28  Scenario.server.udpApp[0]  rcvdAppPkt:vector  ETV
attr interpolationmode  none
attr source  rcvdAppPkt
attr title  "packets received during sec, vector"
1	9868 7485 153 12562 0.2 89.8 449 1250 1250 561250 701562500
3	17353 7485 157 12564 0.2 89.8 449 1258 1258 564842 710571236
4	24838 6928 157 12564 0.2 89.8 449 1 449 101025 30273825
9	31766 12 159 159 0.2 0.2 1 1 1 1 1
14	31778 11280 165 12571 0.20000576 89.80010432 450 64 1296 581968 754151680
15	43058 25 339 339 0.200099919998 0.200099919998 1 64 64 64 4096
16	43083 25 339 339 0.200099919998 0.200099919998 1 64 64 64 4096
19	43108 7959 163 12569 0.2 89.8 450 64 1296 581968 754151680
23	51067 7959 162 12568 0.2 89.8 450 28 1278 573850 733345300
24	59026 25 341 341 0.200099919998 0.200099919998 1 28 28 28 784
26	59051 11261 565 12587 0.200569039992 89.80021064 449 1250 1250 561250 701562500
27	70312 10704 565 12587 0.200569039992 89.80021064 449 1 449 101025 30273825
28	81016 1965 669 12483 1.00021064 89.00021064 89 5 5 445 2225
31	82981 11261 563 12585 0.200569039992 89.80021064 449 1258 1258 564842 710571236
32	94242 10704 563 12585 0.200569039992 89.80021064 449 1 449 101025 30273825
36	104946 24 237 237 0.200043199999 0.200043199999 1 1 1 1 1
40	104970 25 245 245 0.200048959999 0.200048959999 1 64 64 64 4096
41	104995 11285 229 12580 0.200043199999 89.80021064 450 64 1296 581968 754151680
42	116280 11285 229 12580 0.200043199999 89.80021064 450 64 1296 581968 754151680
45	127565 25 243 243 0.200043199999 0.200043199999 1 64 64 64 4096
49	127590 25 242 242 0.200043199999 0.200043199999 1 28 28 28 784
50	127615 11285 231 12581 0.200043199999 89.80021064 450 28 1278 573850 733345300
52	138900 25 335 335 0.200098919998 0.200098919998 1 64 64 64 4096
53	138925 11280 167 12573 0.20000676 89.80010532 450 64 1296 581968 754151680
54	150205 11280 167 12573 0.20000676 89.80010532 450 64 1296 581968 754151680
57	161485 25 331 331 0.200093159998 0.200093159998 1 64 64 64 4096
63	161510 11284 225 12578 0.200042199999 89.80020964 450 64 1296 581968 754151680
64	172794 25 247 247 0.200049959999 0.200049959999 1 64 64 64 4096
65	172819 25 247 247 0.200049959999 0.200049959999 1 64 64 64 4096
68	172844 11284 221 12576 0.200036439999 89.80010532 450 64 1296 581968 754151680
74	184128 10 27 27 0 0 1 1 1 1 1
76	184138 712 32 10623 0.00000576 75.000019239999 29 64 594 3253 914323
77	184850 691 45 10641 0.00001352 75.000026999999 28 64 594 3189 910227
78	185541 691 45 10641 0.00001352 75.000026999999 28 64 594 3189 910227
81	186232 680 31 10614 0 75.00000676 29 64 594 3253 914323
85	186912 680 30 10613 0 75.00000676 29 28 576 2587 794395
86	187592 691 46 10642 0.00001352 75.000026999999 28 28 576 2547 792795
89	188283 19 38 38 0.00000676 0.00000676 1 1 1 1 1
93	188302 690 43 10639 0.00001252 75.000025999999 28 64 594 3189 910227
94	188992 712 34 10625 0.00000676 75.000020239999 29 64 594 3253 914323
95	189704 712 34 10625 0.00000676 75.000020239999 29 64 594 3253 914323
98	190416 642 42 10638 0.00000676 75.000020239999 28 64 594 3189 910227
102	191058 670 41 10637 0.00000676 75.000020239999 28 28 576 2547 792795
103	191728 741 35 10626 0.00000676 75.000020239999 29 28 576 2587 794395
105	192469 396 60 10622 0.00002028 75.00001352 15 7504 7504 112560 844650240
106	192865 698 60 10630 0.00002028 75.000020239999 27 7504 7504 202608 1520370432
107	193563 721 60 10630 0.00002028 75.000020239999 28 7505 8940 236852 2014780672
108	194284 287 93 10580 0.0000338 75 13 6 1440 9511 12310339
109	194571 681 60 10630 0.00002028 75.000020239999 27 1 1436 26739 36786303
110	195252 748 60 10630 0.00002028 75.000020239999 28 0 1435 25304 34724208
111	196000 744 60 10630 0.00002028 75.000020239999 28 0 1441 21527 28950049
112	196744 554 88 10622 0.0000338 75.00001352 25 0 1298 3719 4005217
113	197298 648 128 10630 0.00004732 75.000020239999 26 0 0 0 0
120	197946 953 60 10630 0.00002028 75.000020239999 40 0 0 0 0
122	198899 351 128 10622 0.00004732 75.00001352 13 1072 4824 28944 87337984
124	199250 329 128 10622 0.00004732 75.00001352 10 1.352e-05 2.4959999e-05 0.000164799997 2.87175666912e-09
125	199579 347 128 10622 0.00004732 75.00001352 10 1.69e-06 1.1480074e-05 8.4439447e-05 8.0760746649695e-10
126	199926 361 128 10622 0.00004732 75.00001352 10 0.197311853974 0.65625169 3.868908862832 1.7103693251158
127	200287 337 128 10622 0.00004732 75.00001352 10 1 2.62500845 15.784454091609 27.929589447236
129	200624 396 73 10646 0.00002704 75.000026999999 14 7504 7504 105056 788340224
130	201020 739 25 10607 0 75.00000676 28 7504 7504 210112 1576680448
131	201759 762 25 10607 0 75.00000676 29 7504 8945 239149 1985107813
132	202521 341 113 10607 0.00004056 75.00000676 13 1 1435 12098 16272154
133	202862 712 25 10607 0 75.00000676 28 0 1441 21527 28950049
134	203574 720 73 10646 0.00002704 75.000026999999 27 5 1441 20091 26873593
135	204294 730 73 10646 0.00002704 75.000026999999 27 1 1436 26739 36786303
136	205024 605 113 10646 0.00004056 75.000026999999 24 0 1297 2421 2320413
137	205629 646 106 10646 0.00004056 75.000026999999 26 0 0 0 0
144	206275 967 25 10607 0 75.00000676 41 0 0 0 0
146	207242 373 152 10646 0.000060799999 75.000026999999 13 1072 3752 23584 52862464
148	207615 396 152 10646 0.000060799999 75.000026999999 11 1.352e-05 5.592e-05 0.000240879994 6.61596775712e-09
149	208011 410 152 10646 0.000060799999 75.000026999999 11 2.529999e-06 1.5793162e-05 0.000130327838 1.7889205355521e-09
150	208421 422 152 10646 0.000060799999 75.000026999999 11 0.172650431577 0.65625253 4.041581346689 1.7401919329251
151	208843 386 152 10646 0.000060799999 75.000026999999 11 1 2.625012649999 16.784545404163 28.929849815761
