version 2
run General-0-20170104-11:08:37-3129
attr configname General
attr datetime 20170104-11:08:37
attr experiment General
attr inifile omnetpp.ini
attr iterationvars ""
attr iterationvars2 $repetition=0
attr measurement ""
attr network Scenario
attr processid 3129
attr repetition 0
attr replication #0
attr resultdir results
attr runnumber 0
attr seedset 0

vector 148  Scenario.switch.tcp  tcpRcvQueueBytes  ETV
vector 135  Scenario.switch.tcp  "advertised window"  ETV
vector 134  Scenario.switch.tcp  "receive window"  ETV
vector 137  Scenario.switch.tcp  "sent ack"  ETV
vector 78  Scenario.switch.networkLayer.arp  sentReq:vector  ETV
attr title  "ARP request sent, vector"
vector 89  Scenario.switch.eth[0].encap  encapPk:vector(packetBytes)  ETV
attr interpolationmode  none
attr source  encapPk
attr title  "packets encapsulated, vector(packetBytes)"
vector 85  Scenario.switch.eth[0].mac  rxPkFromHL:vector(packetBytes)  ETV
attr interpolationmode  none
attr source  rxPkFromHL
attr title  "packet bytes from higher layer, vector(packetBytes)"
vector 80  Scenario.switch.eth[0].mac  txPk:vector(packetBytes)  ETV
attr interpolationmode  none
attr source  txPk
attr title  "packets transmitted, vector(packetBytes)"
vector 98  Scenario.controller.eth[0].mac  rxPkOk:vector(packetBytes)  ETV
attr interpolationmode  none
attr source  rxPkOk
attr title  "packets received OK, vector(packetBytes)"
vector 99  Scenario.controller.eth[0].mac  passedUpPk:vector(packetBytes)  ETV
attr interpolationmode  none
attr source  packetSentToUpper
attr title  "packets passed to higher layer, vector(packetBytes)"
vector 107  Scenario.controller.eth[0].encap  decapPk:vector(packetBytes)  ETV
attr interpolationmode  none
attr source  decapPk
attr title  "packets decapsulated, vector(packetBytes)"
vector 93  Scenario.controller.networkLayer.arp  sentReply:vector  ETV
attr title  "ARP replies sent, vector"
vector 106  Scenario.controller.eth[0].encap  encapPk:vector(packetBytes)  ETV
attr interpolationmode  none
attr source  encapPk
attr title  "packets encapsulated, vector(packetBytes)"
vector 102  Scenario.controller.eth[0].mac  rxPkFromHL:vector(packetBytes)  ETV
attr interpolationmode  none
attr source  rxPkFromHL
attr title  "packet bytes from higher layer, vector(packetBytes)"
vector 97  Scenario.controller.eth[0].mac  txPk:vector(packetBytes)  ETV
attr interpolationmode  none
attr source  txPk
attr title  "packets transmitted, vector(packetBytes)"
vector 81  Scenario.switch.eth[0].mac  rxPkOk:vector(packetBytes)  ETV
attr interpolationmode  none
attr source  rxPkOk
attr title  "packets received OK, vector(packetBytes)"
vector 82  Scenario.switch.eth[0].mac  passedUpPk:vector(packetBytes)  ETV
attr interpolationmode  none
attr source  packetSentToUpper
attr title  "packets passed to higher layer, vector(packetBytes)"
vector 90  Scenario.switch.eth[0].encap  decapPk:vector(packetBytes)  ETV
attr interpolationmode  none
attr source  decapPk
attr title  "packets decapsulated, vector(packetBytes)"
vector 114  Scenario.controller.tcp  "rcvd seq"  ETV
vector 115  Scenario.controller.tcp  "rcvd ack"  ETV
vector 111  Scenario.controller.tcp  "advertised window"  ETV
vector 109  Scenario.controller.tcp  "send window"  ETV
vector 124  Scenario.controller.tcp  tcpRcvQueueBytes  ETV
vector 110  Scenario.controller.tcp  "receive window"  ETV
vector 113  Scenario.controller.tcp  "sent ack"  ETV
vector 138  Scenario.switch.tcp  "rcvd seq"  ETV
vector 139  Scenario.switch.tcp  "rcvd ack"  ETV
vector 133  Scenario.switch.tcp  "send window"  ETV
vector 116  Scenario.controller.tcp  "unacked bytes"  ETV
vector 112  Scenario.controller.tcp  "sent seq"  ETV
vector 141  Scenario.switch.tcp  "rcvd dupAcks"  ETV
vector 136  Scenario.switch.tcp  "sent seq"  ETV
vector 140  Scenario.switch.tcp  "unacked bytes"  ETV
vector 128  Scenario.controller.tcp  "measured RTT"  ETV
vector 129  Scenario.controller.tcp  "smoothed RTT"  ETV
vector 130  Scenario.controller.tcp  RTTVAR  ETV
vector 131  Scenario.controller.tcp  RTO  ETV
vector 126  Scenario.controller.tcp  cwnd  ETV
vector 117  Scenario.controller.tcp  "rcvd dupAcks"  ETV
vector 152  Scenario.switch.tcp  "measured RTT"  ETV
vector 153  Scenario.switch.tcp  "smoothed RTT"  ETV
vector 154  Scenario.switch.tcp  RTTVAR  ETV
vector 155  Scenario.switch.tcp  RTO  ETV
vector 150  Scenario.switch.tcp  cwnd  ETV
vector 1  Scenario.client.udpApp[0]  sentPk:vector(packetBytes)  ETV
attr interpolationmode  none
attr source  sentPk
attr title  "packets sent, vector(packetBytes)"
vector 3  Scenario.client.udp  sentPk:vector(packetBytes)  ETV
attr interpolationmode  none
attr source  sentPk
attr title  "packets sent, vector(packetBytes)"
vector 4  Scenario.client.udp  sentPk:vector(count)  ETV
attr interpolationmode  none
attr source  sentPk
attr title  "packets sent, vector(count)"
vector 11  Scenario.client.networkLayer.arp  sentReq:vector  ETV
attr title  "ARP request sent, vector"
vector 25  Scenario.client.eth[0].encap  encapPk:vector(packetBytes)  ETV
attr interpolationmode  none
attr source  encapPk
attr title  "packets encapsulated, vector(packetBytes)"
vector 21  Scenario.client.eth[0].mac  rxPkFromHL:vector(packetBytes)  ETV
attr interpolationmode  none
attr source  rxPkFromHL
attr title  "packet bytes from higher layer, vector(packetBytes)"
vector 16  Scenario.client.eth[0].mac  txPk:vector(packetBytes)  ETV
attr interpolationmode  none
attr source  txPk
attr title  "packets transmitted, vector(packetBytes)"
vector 57  Scenario.switch.etherMAC[0]  rxPkOk:vector(packetBytes)  ETV
attr interpolationmode  none
attr source  rxPkOk
attr title  "packets received OK, vector(packetBytes)"
vector 58  Scenario.switch.etherMAC[0]  passedUpPk:vector(packetBytes)  ETV
attr interpolationmode  none
attr source  packetSentToUpper
attr title  "packets passed to higher layer, vector(packetBytes)"
vector 72  Scenario.switch.etherMAC[1]  rxPkFromHL:vector(packetBytes)  ETV
attr interpolationmode  none
attr source  rxPkFromHL
attr title  "packet bytes from higher layer, vector(packetBytes)"
vector 67  Scenario.switch.etherMAC[1]  txPk:vector(packetBytes)  ETV
attr interpolationmode  none
attr source  txPk
attr title  "packets transmitted, vector(packetBytes)"
vector 45  Scenario.server.eth[0].mac  rxPkOk:vector(packetBytes)  ETV
attr interpolationmode  none
attr source  rxPkOk
attr title  "packets received OK, vector(packetBytes)"
vector 46  Scenario.server.eth[0].mac  passedUpPk:vector(packetBytes)  ETV
attr interpolationmode  none
attr source  packetSentToUpper
attr title  "packets passed to higher layer, vector(packetBytes)"
vector 54  Scenario.server.eth[0].encap  decapPk:vector(packetBytes)  ETV
attr interpolationmode  none
attr source  decapPk
attr title  "packets decapsulated, vector(packetBytes)"
vector 40  Scenario.server.networkLayer.arp  sentReply:vector  ETV
attr title  "ARP replies sent, vector"
vector 53  Scenario.server.eth[0].encap  encapPk:vector(packetBytes)  ETV
attr interpolationmode  none
attr source  encapPk
attr title  "packets encapsulated, vector(packetBytes)"
vector 49  Scenario.server.eth[0].mac  rxPkFromHL:vector(packetBytes)  ETV
attr interpolationmode  none
attr source  rxPkFromHL
attr title  "packet bytes from higher layer, vector(packetBytes)"
vector 44  Scenario.server.eth[0].mac  txPk:vector(packetBytes)  ETV
attr interpolationmode  none
attr source  txPk
attr title  "packets transmitted, vector(packetBytes)"
vector 68  Scenario.switch.etherMAC[1]  rxPkOk:vector(packetBytes)  ETV
attr interpolationmode  none
attr source  rxPkOk
attr title  "packets received OK, vector(packetBytes)"
vector 69  Scenario.switch.etherMAC[1]  passedUpPk:vector(packetBytes)  ETV
attr interpolationmode  none
attr source  packetSentToUpper
attr title  "packets passed to higher layer, vector(packetBytes)"
vector 61  Scenario.switch.etherMAC[0]  rxPkFromHL:vector(packetBytes)  ETV
attr interpolationmode  none
attr source  rxPkFromHL
attr title  "packet bytes from higher layer, vector(packetBytes)"
vector 56  Scenario.switch.etherMAC[0]  txPk:vector(packetBytes)  ETV
attr interpolationmode  none
attr source  txPk
attr title  "packets transmitted, vector(packetBytes)"
vector 17  Scenario.client.eth[0].mac  rxPkOk:vector(packetBytes)  ETV
attr interpolationmode  none
attr source  rxPkOk
attr title  "packets received OK, vector(packetBytes)"
vector 18  Scenario.client.eth[0].mac  passedUpPk:vector(packetBytes)  ETV
attr interpolationmode  none
attr source  packetSentToUpper
attr title  "packets passed to higher layer, vector(packetBytes)"
vector 26  Scenario.client.eth[0].encap  decapPk:vector(packetBytes)  ETV
attr interpolationmode  none
attr source  decapPk
attr title  "packets decapsulated, vector(packetBytes)"
vector 33  Scenario.server.udp  rcvdPk:vector(packetBytes)  ETV
attr interpolationmode  none
attr source  rcvdPk
attr title  "packets received, vector(packetBytes)"
vector 38  Scenario.server.udp  rcvdPkLifetime:vector  ETV
attr interpolationmode  none
attr source  messageAge(rcvdPk)
attr title  "received packet lifetime, vector"
attr unit  s
vector 37  Scenario.server.udp  delay:vector  ETV
attr interpolationmode  none
attr source  delay
attr title  "delay, vector"
vector 34  Scenario.server.udp  passedUpPk:vector(count)  ETV
attr interpolationmode  none
attr title  "packets passed up, vector(count)"
vector 28  Scenario.server.udpApp[0]  rcvdPk:vector(packetBytes)  ETV
attr interpolationmode  none
attr source  rcvdPk
attr title  "packets received, vector(packetBytes)"
vector 29  Scenario.server.udpApp[0]  rcvdPk:vector(count)  ETV
attr interpolationmode  none
attr source  rcvdPk
attr title  "packets received, vector(count)"
vector 30  Scenario.server.udpApp[0]  rcvdAppPkt:vector  ETV
attr interpolationmode  none
attr source  rcvdAppPkt
attr title  "packets received during sec, vector"
vector 92  Scenario.controller.networkLayer.arp  sentReq:vector  ETV
attr title  "ARP request sent, vector"
vector 79  Scenario.switch.networkLayer.arp  sentReply:vector  ETV
attr title  "ARP replies sent, vector"
1	153	0.2	1250
1	572	0.4	1250
1	600	0.6	1250
1	628	0.8	1250
1	656	1	1250
1	684	1.2	1250
1	712	1.4	1250
1	740	1.6	1250
1	768	1.8	1250
1	796	2	1250
1	824	2.2	1250
1	852	2.4	1250
1	880	2.6	1250
1	908	2.8	1250
1	936	3	1250
1	964	3.2	1250
1	992	3.4	1250
1	1020	3.6	1250
1	1048	3.8	1250
1	1076	4	1250
1	1104	4.2	1250
1	1132	4.4	1250
1	1160	4.6	1250
1	1188	4.8	1250
1	1216	5	1250
1	1244	5.2	1250
1	1272	5.4	1250
1	1300	5.6	1250
1	1328	5.8	1250
1	1356	6	1250
1	1384	6.2	1250
1	1412	6.4	1250
1	1440	6.6	1250
1	1468	6.8	1250
1	1496	7	1250
1	1524	7.2	1250
1	1552	7.4	1250
1	1580	7.6	1250
1	1608	7.8	1250
1	1636	8	1250
1	1664	8.2	1250
1	1692	8.4	1250
1	1720	8.6	1250
1	1748	8.8	1250
1	1776	9	1250
1	1804	9.2	1250
1	1832	9.4	1250
1	1860	9.6	1250
1	1888	9.8	1250
1	1916	10	1250
1	1944	10.2	1250
1	1972	10.4	1250
1	2000	10.6	1250
1	2028	10.8	1250
1	2056	11	1250
1	2084	11.2	1250
1	2112	11.4	1250
1	2140	11.6	1250
1	2168	11.8	1250
1	2196	12	1250
1	2224	12.2	1250
1	2252	12.4	1250
1	2280	12.6	1250
1	2308	12.8	1250
1	2336	13	1250
1	2364	13.2	1250
1	2392	13.4	1250
1	2420	13.6	1250
1	2448	13.8	1250
1	2476	14	1250
1	2504	14.2	1250
1	2532	14.4	1250
1	2560	14.6	1250
1	2588	14.8	1250
1	2616	15	1250
1	2644	15.2	1250
1	2672	15.4	1250
1	2700	15.6	1250
1	2728	15.8	1250
1	2756	16	1250
1	2784	16.2	1250
1	2812	16.4	1250
1	2840	16.6	1250
1	2868	16.8	1250
1	2896	17	1250
1	2924	17.2	1250
1	2952	17.4	1250
1	2980	17.6	1250
1	3008	17.8	1250
1	3036	18	1250
1	3064	18.2	1250
1	3092	18.4	1250
1	3120	18.6	1250
1	3148	18.8	1250
1	3176	19	1250
1	3204	19.2	1250
1	3232	19.4	1250
1	3260	19.6	1250
1	3288	19.8	1250
1	3316	20	1250
1	3344	20.2	1250
1	3372	20.4	1250
1	3400	20.6	1250
1	3428	20.8	1250
1	3456	21	1250
1	3484	21.2	1250
1	3512	21.4	1250
1	3540	21.6	1250
1	3568	21.8	1250
1	3596	22	1250
1	3624	22.2	1250
1	3652	22.4	1250
1	3680	22.6	1250
1	3708	22.8	1250
1	3736	23	1250
1	3764	23.2	1250
1	3792	23.4	1250
1	3820	23.6	1250
1	3848	23.8	1250
1	3876	24	1250
1	3904	24.2	1250
1	3932	24.4	1250
1	3960	24.6	1250
1	3988	24.8	1250
1	4016	25	1250
1	4044	25.2	1250
1	4072	25.4	1250
1	4100	25.6	1250
1	4128	25.8	1250
1	4156	26	1250
1	4184	26.2	1250
1	4212	26.4	1250
1	4240	26.6	1250
1	4268	26.8	1250
1	4296	27	1250
1	4324	27.2	1250
1	4352	27.4	1250
1	4380	27.6	1250
1	4408	27.8	1250
1	4436	28	1250
1	4464	28.2	1250
1	4492	28.4	1250
1	4520	28.6	1250
1	4548	28.8	1250
1	4576	29	1250
1	4604	29.2	1250
1	4632	29.4	1250
1	4660	29.6	1250
1	4688	29.8	1250
1	4717	30	1250
1	4806	30.2	1250
1	4834	30.4	1250
1	4862	30.6	1250
1	4890	30.8	1250
1	4919	31	1250
1	4947	31.2	1250
1	4975	31.4	1250
1	5003	31.6	1250
1	5031	31.8	1250
1	5059	32	1250
1	5087	32.2	1250
1	5115	32.4	1250
1	5143	32.6	1250
1	5171	32.8	1250
1	5199	33	1250
1	5227	33.2	1250
1	5255	33.4	1250
1	5283	33.6	1250
1	5311	33.8	1250
1	5339	34	1250
1	5367	34.2	1250
1	5395	34.4	1250
1	5423	34.6	1250
1	5451	34.8	1250
1	5479	35	1250
1	5507	35.2	1250
1	5535	35.4	1250
1	5563	35.6	1250
1	5591	35.8	1250
1	5619	36	1250
1	5647	36.2	1250
1	5675	36.4	1250
1	5703	36.6	1250
1	5731	36.8	1250
1	5759	37	1250
1	5787	37.2	1250
1	5815	37.4	1250
1	5843	37.6	1250
1	5871	37.8	1250
1	5899	38	1250
1	5927	38.2	1250
1	5955	38.4	1250
1	5983	38.6	1250
1	6011	38.8	1250
1	6039	39	1250
1	6067	39.2	1250
1	6095	39.4	1250
1	6123	39.6	1250
1	6151	39.8	1250
1	6179	40	1250
1	6207	40.2	1250
1	6235	40.4	1250
1	6263	40.6	1250
1	6291	40.8	1250
1	6319	41	1250
1	6347	41.2	1250
1	6375	41.4	1250
1	6403	41.6	1250
1	6431	41.8	1250
1	6459	42	1250
1	6487	42.2	1250
1	6515	42.4	1250
1	6543	42.6	1250
1	6571	42.8	1250
1	6599	43	1250
1	6627	43.2	1250
1	6655	43.4	1250
1	6683	43.6	1250
1	6711	43.8	1250
1	6739	44	1250
1	6767	44.2	1250
1	6795	44.4	1250
1	6823	44.6	1250
1	6851	44.8	1250
1	6879	45	1250
1	6907	45.2	1250
1	6935	45.4	1250
1	6963	45.6	1250
1	6991	45.8	1250
1	7019	46	1250
1	7047	46.2	1250
1	7075	46.4	1250
1	7103	46.6	1250
1	7131	46.8	1250
1	7159	47	1250
1	7187	47.2	1250
1	7215	47.4	1250
1	7243	47.6	1250
1	7271	47.8	1250
1	7299	48	1250
1	7327	48.2	1250
1	7355	48.4	1250
1	7383	48.6	1250
1	7411	48.8	1250
1	7439	49	1250
1	7467	49.2	1250
1	7495	49.4	1250
1	7523	49.6	1250
1	7551	49.8	1250
1	7579	50	1250
1	7607	50.2	1250
1	7635	50.4	1250
1	7663	50.6	1250
1	7691	50.8	1250
1	7719	51	1250
1	7747	51.2	1250
1	7775	51.4	1250
1	7803	51.6	1250
1	7831	51.8	1250
1	7859	52	1250
1	7887	52.2	1250
1	7915	52.4	1250
1	7943	52.6	1250
1	7971	52.8	1250
1	7999	53	1250
1	8027	53.2	1250
1	8055	53.4	1250
1	8083	53.6	1250
1	8111	53.8	1250
1	8139	54	1250
1	8167	54.2	1250
1	8195	54.4	1250
1	8223	54.6	1250
1	8251	54.8	1250
1	8279	55	1250
1	8307	55.2	1250
1	8335	55.4	1250
1	8363	55.6	1250
1	8391	55.8	1250
1	8419	56	1250
1	8447	56.2	1250
1	8475	56.4	1250
1	8503	56.6	1250
1	8531	56.8	1250
1	8559	57	1250
1	8587	57.2	1250
1	8615	57.4	1250
1	8643	57.6	1250
1	8671	57.8	1250
1	8699	58	1250
1	8727	58.2	1250
1	8755	58.4	1250
1	8783	58.6	1250
1	8811	58.8	1250
1	8839	59	1250
1	8867	59.2	1250
1	8895	59.4	1250
1	8923	59.6	1250
1	8951	59.8	1250
1	8979	60	1250
1	9007	60.2	1250
1	9099	60.4	1250
1	9127	60.6	1250
1	9155	60.8	1250
1	9183	61	1250
1	9211	61.2	1250
1	9239	61.4	1250
1	9267	61.6	1250
1	9295	61.8	1250
1	9323	62	1250
1	9351	62.2	1250
1	9379	62.4	1250
1	9407	62.6	1250
1	9435	62.8	1250
1	9463	63	1250
1	9491	63.2	1250
1	9519	63.4	1250
1	9547	63.6	1250
1	9575	63.8	1250
1	9603	64	1250
1	9631	64.2	1250
1	9659	64.4	1250
1	9687	64.6	1250
1	9715	64.8	1250
1	9743	65	1250
1	9771	65.2	1250
1	9799	65.4	1250
1	9827	65.6	1250
1	9855	65.8	1250
1	9883	66	1250
1	9911	66.2	1250
1	9939	66.4	1250
1	9967	66.6	1250
1	9995	66.8	1250
1	10023	67	1250
1	10051	67.2	1250
1	10079	67.4	1250
1	10107	67.6	1250
1	10135	67.8	1250
1	10163	68	1250
1	10191	68.2	1250
1	10219	68.4	1250
1	10247	68.6	1250
1	10275	68.8	1250
1	10303	69	1250
1	10331	69.2	1250
1	10359	69.4	1250
1	10387	69.6	1250
1	10415	69.8	1250
1	10443	70	1250
1	10471	70.2	1250
1	10499	70.4	1250
1	10527	70.6	1250
1	10555	70.8	1250
1	10583	71	1250
1	10611	71.2	1250
1	10639	71.4	1250
1	10667	71.6	1250
1	10695	71.8	1250
1	10723	72	1250
1	10751	72.2	1250
1	10779	72.4	1250
1	10807	72.6	1250
1	10835	72.8	1250
1	10863	73	1250
1	10891	73.2	1250
1	10919	73.4	1250
1	10947	73.6	1250
1	10975	73.8	1250
1	11003	74	1250
1	11031	74.2	1250
1	11059	74.4	1250
1	11087	74.6	1250
1	11115	74.8	1250
1	11143	75	1250
1	11171	75.2	1250
1	11199	75.4	1250
1	11227	75.6	1250
1	11255	75.8	1250
1	11283	76	1250
1	11311	76.2	1250
1	11339	76.4	1250
1	11367	76.6	1250
1	11395	76.8	1250
1	11423	77	1250
1	11451	77.2	1250
1	11479	77.4	1250
1	11507	77.6	1250
1	11535	77.8	1250
1	11563	78	1250
1	11591	78.2	1250
1	11619	78.4	1250
1	11647	78.6	1250
1	11675	78.8	1250
1	11703	79	1250
1	11731	79.2	1250
1	11759	79.4	1250
1	11787	79.6	1250
1	11815	79.8	1250
1	11843	80	1250
1	11871	80.2	1250
1	11899	80.4	1250
1	11927	80.6	1250
1	11955	80.8	1250
1	11983	81	1250
1	12011	81.2	1250
1	12039	81.4	1250
1	12067	81.6	1250
1	12095	81.8	1250
1	12123	82	1250
1	12151	82.2	1250
1	12179	82.4	1250
1	12207	82.6	1250
1	12235	82.8	1250
1	12263	83	1250
1	12291	83.2	1250
1	12319	83.4	1250
1	12347	83.6	1250
1	12375	83.8	1250
1	12403	84	1250
1	12431	84.2	1250
1	12459	84.4	1250
1	12487	84.6	1250
1	12515	84.8	1250
1	12543	85	1250
1	12571	85.2	1250
1	12599	85.4	1250
1	12627	85.6	1250
1	12655	85.8	1250
1	12683	86	1250
1	12711	86.2	1250
1	12739	86.4	1250
1	12767	86.6	1250
1	12795	86.8	1250
1	12823	87	1250
1	12851	87.2	1250
1	12879	87.4	1250
1	12907	87.6	1250
1	12935	87.8	1250
1	12963	88	1250
1	12991	88.2	1250
1	13019	88.4	1250
1	13047	88.6	1250
1	13075	88.8	1250
1	13103	89	1250
1	13131	89.2	1250
1	13159	89.4	1250
1	13187	89.6	1250
1	13215	89.8	1250
1	13244	90	1250
1	13394	90.2	1250
1	13422	90.4	1250
1	13450	90.6	1250
1	13478	90.8	1250
1	13507	91	1250
1	13535	91.2	1250
1	13563	91.4	1250
1	13591	91.6	1250
1	13619	91.8	1250
1	13647	92	1250
1	13675	92.2	1250
1	13703	92.4	1250
1	13731	92.6	1250
1	13759	92.8	1250
1	13787	93	1250
1	13815	93.2	1250
1	13843	93.4	1250
1	13871	93.6	1250
1	13899	93.8	1250
1	13927	94	1250
1	13955	94.2	1250
1	13983	94.4	1250
1	14011	94.6	1250
1	14039	94.8	1250
1	14067	95	1250
1	14095	95.2	1250
1	14123	95.4	1250
1	14151	95.6	1250
1	14179	95.8	1250
1	14207	96	1250
1	14235	96.2	1250
1	14263	96.4	1250
1	14291	96.6	1250
1	14319	96.8	1250
1	14347	97	1250
1	14375	97.2	1250
1	14403	97.4	1250
1	14431	97.6	1250
1	14459	97.8	1250
1	14487	98	1250
1	14515	98.2	1250
1	14543	98.4	1250
1	14571	98.6	1250
1	14599	98.8	1250
1	14627	99	1250
1	14655	99.2	1250
1	14683	99.4	1250
1	14711	99.6	1250
1	14739	99.8	1250
1	14767	100	1250
1	14795	100.2	1250
1	14823	100.4	1250
1	14851	100.6	1250
1	14879	100.8	1250
1	14907	101	1250
1	14935	101.2	1250
1	14963	101.4	1250
1	14991	101.6	1250
1	15019	101.8	1250
1	15047	102	1250
1	15075	102.2	1250
1	15103	102.4	1250
1	15131	102.6	1250
1	15159	102.8	1250
1	15187	103	1250
1	15215	103.2	1250
1	15243	103.4	1250
1	15271	103.6	1250
1	15299	103.8	1250
1	15327	104	1250
1	15355	104.2	1250
1	15383	104.4	1250
1	15411	104.6	1250
1	15439	104.8	1250
1	15467	105	1250
1	15495	105.2	1250
1	15523	105.4	1250
1	15551	105.6	1250
1	15579	105.8	1250
1	15607	106	1250
1	15635	106.2	1250
1	15663	106.4	1250
1	15691	106.6	1250
1	15719	106.8	1250
1	15747	107	1250
1	15775	107.2	1250
1	15803	107.4	1250
1	15831	107.6	1250
1	15859	107.8	1250
1	15887	108	1250
1	15915	108.2	1250
1	15943	108.4	1250
1	15971	108.6	1250
1	15999	108.8	1250
1	16027	109	1250
1	16055	109.2	1250
1	16083	109.4	1250
1	16111	109.6	1250
1	16139	109.8	1250
1	16167	110	1250
1	16195	110.2	1250
1	16223	110.4	1250
1	16251	110.6	1250
1	16279	110.8	1250
1	16307	111	1250
1	16335	111.2	1250
1	16363	111.4	1250
1	16391	111.6	1250
1	16419	111.8	1250
1	16447	112	1250
1	16475	112.2	1250
1	16503	112.4	1250
1	16531	112.6	1250
1	16559	112.8	1250
1	16587	113	1250
1	16615	113.2	1250
1	16643	113.4	1250
1	16671	113.6	1250
1	16699	113.8	1250
1	16727	114	1250
1	16755	114.2	1250
1	16783	114.4	1250
1	16811	114.6	1250
1	16839	114.8	1250
1	16867	115	1250
1	16895	115.2	1250
1	16923	115.4	1250
1	16951	115.6	1250
1	16979	115.8	1250
1	17007	116	1250
1	17035	116.2	1250
1	17063	116.4	1250
1	17091	116.6	1250
1	17119	116.8	1250
1	17147	117	1250
1	17175	117.2	1250
1	17203	117.4	1250
1	17231	117.6	1250
1	17259	117.8	1250
1	17287	118	1250
1	17315	118.2	1250
1	17343	118.4	1250
1	17371	118.6	1250
1	17399	118.8	1250
1	17427	119	1250
1	17455	119.2	1250
1	17483	119.4	1250
1	17511	119.6	1250
1	17539	119.8	1250
1	17568	120	1250
1	17710	120.2	1250
1	17738	120.4	1250
1	17960	120.6	1250
1	17988	120.8	1250
1	18017	121	1250
1	18045	121.2	1250
1	18073	121.4	1250
1	18101	121.6	1250
1	18129	121.8	1250
1	18157	122	1250
1	18185	122.2	1250
1	18213	122.4	1250
1	18241	122.6	1250
1	18269	122.8	1250
1	18297	123	1250
1	18325	123.2	1250
1	18353	123.4	1250
1	18381	123.6	1250
1	18409	123.8	1250
1	18437	124	1250
1	18465	124.2	1250
1	18493	124.4	1250
1	18521	124.6	1250
1	18549	124.8	1250
1	18577	125	1250
1	18605	125.2	1250
1	18633	125.4	1250
1	18661	125.6	1250
1	18689	125.8	1250
1	18717	126	1250
1	18745	126.2	1250
1	18773	126.4	1250
1	18801	126.6	1250
1	18829	126.8	1250
1	18857	127	1250
1	18885	127.2	1250
1	18913	127.4	1250
1	18941	127.6	1250
1	18969	127.8	1250
1	18997	128	1250
1	19025	128.2	1250
1	19053	128.4	1250
1	19081	128.6	1250
1	19109	128.8	1250
1	19137	129	1250
1	19165	129.2	1250
1	19193	129.4	1250
1	19221	129.6	1250
1	19249	129.8	1250
1	19277	130	1250
1	19305	130.2	1250
1	19333	130.4	1250
1	19361	130.6	1250
1	19389	130.8	1250
1	19417	131	1250
1	19445	131.2	1250
1	19473	131.4	1250
1	19501	131.6	1250
1	19529	131.8	1250
1	19557	132	1250
1	19585	132.2	1250
1	19613	132.4	1250
1	19641	132.6	1250
1	19669	132.8	1250
1	19697	133	1250
1	19725	133.2	1250
1	19753	133.4	1250
1	19781	133.6	1250
1	19809	133.8	1250
1	19837	134	1250
1	19865	134.2	1250
1	19893	134.4	1250
1	19921	134.6	1250
1	19949	134.8	1250
1	19977	135	1250
1	20005	135.2	1250
1	20033	135.4	1250
1	20061	135.6	1250
1	20089	135.8	1250
1	20117	136	1250
1	20145	136.2	1250
1	20173	136.4	1250
1	20201	136.6	1250
1	20229	136.8	1250
1	20257	137	1250
1	20285	137.2	1250
1	20313	137.4	1250
1	20341	137.6	1250
1	20369	137.8	1250
1	20397	138	1250
1	20425	138.2	1250
1	20453	138.4	1250
1	20481	138.6	1250
1	20509	138.8	1250
1	20537	139	1250
1	20565	139.2	1250
1	20593	139.4	1250
1	20621	139.6	1250
1	20649	139.8	1250
1	20677	140	1250
1	20705	140.2	1250
1	20733	140.4	1250
1	20761	140.6	1250
1	20789	140.8	1250
1	20817	141	1250
1	20845	141.2	1250
1	20873	141.4	1250
1	20901	141.6	1250
1	20929	141.8	1250
1	20957	142	1250
1	20985	142.2	1250
1	21013	142.4	1250
1	21041	142.6	1250
1	21069	142.8	1250
1	21097	143	1250
1	21125	143.2	1250
1	21153	143.4	1250
1	21181	143.6	1250
1	21209	143.8	1250
1	21237	144	1250
1	21265	144.2	1250
1	21293	144.4	1250
1	21321	144.6	1250
1	21349	144.8	1250
1	21377	145	1250
1	21405	145.2	1250
1	21433	145.4	1250
1	21461	145.6	1250
1	21489	145.8	1250
1	21517	146	1250
1	21545	146.2	1250
1	21573	146.4	1250
1	21601	146.6	1250
1	21629	146.8	1250
1	21657	147	1250
1	21685	147.2	1250
1	21713	147.4	1250
1	21741	147.6	1250
1	21769	147.8	1250
1	21797	148	1250
1	21825	148.2	1250
1	21853	148.4	1250
1	21881	148.6	1250
1	21909	148.8	1250
1	21937	149	1250
1	21965	149.2	1250
1	21993	149.4	1250
1	22021	149.6	1250
1	22049	149.8	1250
1	22077	150	1250
1	22137	150.2	1250
1	22165	150.4	1250
1	22193	150.6	1250
1	22221	150.8	1250
1	22249	151	1250
1	22277	151.2	1250
1	22305	151.4	1250
1	22333	151.6	1250
1	22361	151.8	1250
1	22389	152	1250
1	22417	152.2	1250
1	22445	152.4	1250
1	22473	152.6	1250
1	22501	152.8	1250
1	22529	153	1250
1	22557	153.2	1250
1	22585	153.4	1250
1	22613	153.6	1250
1	22641	153.8	1250
1	22669	154	1250
1	22697	154.2	1250
1	22725	154.4	1250
1	22753	154.6	1250
1	22781	154.8	1250
1	22809	155	1250
1	22837	155.2	1250
1	22865	155.4	1250
1	22893	155.6	1250
1	22921	155.8	1250
1	22949	156	1250
1	22977	156.2	1250
1	23005	156.4	1250
1	23033	156.6	1250
1	23061	156.8	1250
1	23089	157	1250
1	23117	157.2	1250
1	23145	157.4	1250
1	23173	157.6	1250
1	23201	157.8	1250
1	23229	158	1250
1	23257	158.2	1250
1	23285	158.4	1250
1	23313	158.6	1250
1	23341	158.8	1250
1	23369	159	1250
1	23397	159.2	1250
1	23425	159.4	1250
1	23453	159.6	1250
1	23481	159.8	1250
1	23509	160	1250
1	23537	160.2	1250
1	23565	160.4	1250
1	23593	160.6	1250
1	23621	160.8	1250
1	23649	161	1250
1	23677	161.2	1250
1	23705	161.4	1250
1	23733	161.6	1250
1	23761	161.8	1250
1	23789	162	1250
1	23817	162.2	1250
1	23845	162.4	1250
1	23873	162.6	1250
1	23901	162.8	1250
1	23929	163	1250
1	23957	163.2	1250
1	23985	163.4	1250
1	24013	163.6	1250
1	24041	163.8	1250
1	24069	164	1250
1	24097	164.2	1250
1	24125	164.4	1250
1	24153	164.6	1250
1	24181	164.8	1250
1	24209	165	1250
1	24237	165.2	1250
1	24265	165.4	1250
1	24293	165.6	1250
1	24321	165.8	1250
1	24349	166	1250
1	24377	166.2	1250
1	24405	166.4	1250
1	24433	166.6	1250
1	24461	166.8	1250
1	24489	167	1250
1	24517	167.2	1250
1	24545	167.4	1250
1	24573	167.6	1250
1	24601	167.8	1250
1	24629	168	1250
1	24657	168.2	1250
1	24685	168.4	1250
1	24713	168.6	1250
1	24741	168.8	1250
1	24769	169	1250
1	24797	169.2	1250
1	24825	169.4	1250
1	24853	169.6	1250
1	24881	169.8	1250
1	24909	170	1250
1	24937	170.2	1250
1	24965	170.4	1250
1	24993	170.6	1250
1	25021	170.8	1250
1	25049	171	1250
1	25077	171.2	1250
1	25105	171.4	1250
1	25133	171.6	1250
1	25161	171.8	1250
1	25189	172	1250
1	25217	172.2	1250
1	25245	172.4	1250
1	25273	172.6	1250
1	25301	172.8	1250
1	25329	173	1250
1	25357	173.2	1250
1	25385	173.4	1250
1	25413	173.6	1250
1	25441	173.8	1250
1	25469	174	1250
1	25497	174.2	1250
1	25525	174.4	1250
1	25553	174.6	1250
1	25581	174.8	1250
1	25609	175	1250
1	25637	175.2	1250
1	25665	175.4	1250
1	25693	175.6	1250
1	25721	175.8	1250
1	25749	176	1250
1	25777	176.2	1250
1	25805	176.4	1250
1	25833	176.6	1250
1	25861	176.8	1250
1	25889	177	1250
1	25917	177.2	1250
1	25945	177.4	1250
1	25973	177.6	1250
1	26001	177.8	1250
1	26029	178	1250
1	26057	178.2	1250
1	26085	178.4	1250
1	26113	178.6	1250
1	26141	178.8	1250
1	26169	179	1250
1	26197	179.2	1250
1	26225	179.4	1250
1	26253	179.6	1250
1	26281	179.8	1250
1	26310	180	1250
1	26430	180.2	1250
1	26458	180.4	1250
1	26518	180.6	1250
1	26546	180.8	1250
1	26575	181	1250
1	26603	181.2	1250
1	26631	181.4	1250
1	26659	181.6	1250
1	26687	181.8	1250
1	26715	182	1250
1	26743	182.2	1250
1	26771	182.4	1250
1	26799	182.6	1250
1	26827	182.8	1250
1	26855	183	1250
1	26883	183.2	1250
1	26911	183.4	1250
1	26939	183.6	1250
1	26967	183.8	1250
1	26995	184	1250
1	27023	184.2	1250
1	27051	184.4	1250
1	27079	184.6	1250
1	27107	184.8	1250
1	27135	185	1250
1	27163	185.2	1250
1	27191	185.4	1250
1	27219	185.6	1250
1	27247	185.8	1250
1	27275	186	1250
1	27303	186.2	1250
1	27331	186.4	1250
1	27359	186.6	1250
1	27387	186.8	1250
1	27415	187	1250
1	27443	187.2	1250
1	27471	187.4	1250
1	27499	187.6	1250
1	27527	187.8	1250
1	27555	188	1250
1	27583	188.2	1250
1	27611	188.4	1250
1	27639	188.6	1250
1	27667	188.8	1250
1	27695	189	1250
1	27723	189.2	1250
1	27751	189.4	1250
1	27779	189.6	1250
1	27807	189.8	1250
1	27835	190	1250
1	27863	190.2	1250
1	27891	190.4	1250
1	27919	190.6	1250
1	27947	190.8	1250
1	27975	191	1250
1	28003	191.2	1250
1	28031	191.4	1250
1	28059	191.6	1250
1	28087	191.8	1250
1	28115	192	1250
1	28143	192.2	1250
1	28171	192.4	1250
1	28199	192.6	1250
1	28227	192.8	1250
1	28255	193	1250
1	28283	193.2	1250
1	28311	193.4	1250
1	28339	193.6	1250
1	28367	193.8	1250
1	28395	194	1250
1	28423	194.2	1250
1	28451	194.4	1250
1	28479	194.6	1250
1	28507	194.8	1250
1	28535	195	1250
1	28563	195.2	1250
1	28591	195.4	1250
1	28619	195.6	1250
1	28647	195.8	1250
1	28675	196	1250
1	28703	196.2	1250
1	28731	196.4	1250
1	28759	196.6	1250
1	28787	196.8	1250
1	28815	197	1250
1	28843	197.2	1250
1	28871	197.4	1250
1	28899	197.6	1250
1	28927	197.8	1250
1	28955	198	1250
1	28983	198.2	1250
1	29011	198.4	1250
1	29039	198.6	1250
1	29067	198.8	1250
1	29095	199	1250
1	29123	199.2	1250
1	29151	199.4	1250
1	29179	199.6	1250
1	29207	199.8	1250
1	29235	200	1250
1	29263	200.2	1250
1	29291	200.4	1250
1	29319	200.6	1250
1	29347	200.8	1250
1	29375	201	1250
1	29403	201.2	1250
1	29431	201.4	1250
1	29459	201.6	1250
1	29487	201.8	1250
1	29515	202	1250
1	29543	202.2	1250
1	29571	202.4	1250
1	29599	202.6	1250
1	29627	202.8	1250
1	29655	203	1250
1	29683	203.2	1250
1	29711	203.4	1250
1	29739	203.6	1250
1	29767	203.8	1250
1	29795	204	1250
1	29823	204.2	1250
1	29851	204.4	1250
1	29879	204.6	1250
1	29907	204.8	1250
1	29935	205	1250
1	29963	205.2	1250
1	29991	205.4	1250
1	30019	205.6	1250
1	30047	205.8	1250
1	30075	206	1250
1	30103	206.2	1250
1	30131	206.4	1250
1	30159	206.6	1250
1	30187	206.8	1250
1	30215	207	1250
1	30243	207.2	1250
1	30271	207.4	1250
1	30299	207.6	1250
1	30327	207.8	1250
1	30355	208	1250
1	30383	208.2	1250
1	30411	208.4	1250
1	30439	208.6	1250
1	30467	208.8	1250
1	30495	209	1250
1	30523	209.2	1250
1	30551	209.4	1250
1	30579	209.6	1250
1	30607	209.8	1250
1	30636	210	1250
1	30756	210.2	1250
1	30784	210.4	1250
1	30812	210.6	1250
1	30840	210.8	1250
1	30869	211	1250
1	30897	211.2	1250
1	30925	211.4	1250
1	30953	211.6	1250
1	30981	211.8	1250
1	31009	212	1250
1	31037	212.2	1250
1	31065	212.4	1250
1	31093	212.6	1250
1	31121	212.8	1250
1	31149	213	1250
1	31177	213.2	1250
1	31205	213.4	1250
1	31233	213.6	1250
1	31261	213.8	1250
1	31289	214	1250
1	31317	214.2	1250
1	31345	214.4	1250
1	31373	214.6	1250
1	31401	214.8	1250
1	31429	215	1250
1	31457	215.2	1250
1	31485	215.4	1250
1	31513	215.6	1250
1	31541	215.8	1250
1	31569	216	1250
1	31597	216.2	1250
1	31625	216.4	1250
1	31653	216.6	1250
1	31681	216.8	1250
1	31709	217	1250
1	31737	217.2	1250
1	31765	217.4	1250
1	31793	217.6	1250
1	31821	217.8	1250
1	31849	218	1250
1	31877	218.2	1250
1	31905	218.4	1250
1	31933	218.6	1250
1	31961	218.8	1250
1	31989	219	1250
1	32017	219.2	1250
1	32045	219.4	1250
1	32073	219.6	1250
1	32101	219.8	1250
1	32129	220	1250
1	32157	220.2	1250
1	32185	220.4	1250
1	32213	220.6	1250
1	32241	220.8	1250
1	32269	221	1250
1	32297	221.2	1250
1	32325	221.4	1250
1	32353	221.6	1250
1	32381	221.8	1250
1	32409	222	1250
1	32437	222.2	1250
1	32465	222.4	1250
1	32493	222.6	1250
1	32521	222.8	1250
1	32549	223	1250
1	32577	223.2	1250
1	32605	223.4	1250
1	32633	223.6	1250
1	32661	223.8	1250