version 2
run My_Scenario-0-20160707-11:56:10-9857
attr configname My_Scenario
attr datetime 20160707-11:56:10
attr experiment My_Scenario
attr inifile omnetpp.ini
attr iterationvars ""
attr iterationvars2 $repetition=0
attr measurement ""
attr network Scenario
attr processid 9857
attr repetition 0
attr replication #0
attr resultdir results
attr runnumber 0
attr seedset 0

vector 143  Scenario.open_flow_switch.tcp  tcpRcvQueueBytes  ETV
vector 130  Scenario.open_flow_switch.tcp  "advertised window"  ETV
vector 129  Scenario.open_flow_switch.tcp  "receive window"  ETV
vector 132  Scenario.open_flow_switch.tcp  "sent ack"  ETV
vector 73  Scenario.open_flow_switch.networkLayer.arp  sentReq:vector  ETV
attr title  "ARP request sent, vector"
vector 84  Scenario.open_flow_switch.eth[0].encap  encapPk:vector(packetBytes)  ETV
attr interpolationmode  none
attr source  encapPk
attr title  "packets encapsulated, vector(packetBytes)"
vector 80  Scenario.open_flow_switch.eth[0].mac  rxPkFromHL:vector(packetBytes)  ETV
attr interpolationmode  none
attr source  rxPkFromHL
attr title  "packet bytes from higher layer, vector(packetBytes)"
vector 75  Scenario.open_flow_switch.eth[0].mac  txPk:vector(packetBytes)  ETV
attr interpolationmode  none
attr source  txPk
attr title  "packets transmitted, vector(packetBytes)"
vector 93  Scenario.controller.eth[0].mac  rxPkOk:vector(packetBytes)  ETV
attr interpolationmode  none
attr source  rxPkOk
attr title  "packets received OK, vector(packetBytes)"
vector 94  Scenario.controller.eth[0].mac  passedUpPk:vector(packetBytes)  ETV
attr interpolationmode  none
attr source  packetSentToUpper
attr title  "packets passed to higher layer, vector(packetBytes)"
vector 102  Scenario.controller.eth[0].encap  decapPk:vector(packetBytes)  ETV
attr interpolationmode  none
attr source  decapPk
attr title  "packets decapsulated, vector(packetBytes)"
vector 88  Scenario.controller.networkLayer.arp  sentReply:vector  ETV
attr title  "ARP replies sent, vector"
vector 101  Scenario.controller.eth[0].encap  encapPk:vector(packetBytes)  ETV
attr interpolationmode  none
attr source  encapPk
attr title  "packets encapsulated, vector(packetBytes)"
vector 97  Scenario.controller.eth[0].mac  rxPkFromHL:vector(packetBytes)  ETV
attr interpolationmode  none
attr source  rxPkFromHL
attr title  "packet bytes from higher layer, vector(packetBytes)"
vector 92  Scenario.controller.eth[0].mac  txPk:vector(packetBytes)  ETV
attr interpolationmode  none
attr source  txPk
attr title  "packets transmitted, vector(packetBytes)"
vector 76  Scenario.open_flow_switch.eth[0].mac  rxPkOk:vector(packetBytes)  ETV
attr interpolationmode  none
attr source  rxPkOk
attr title  "packets received OK, vector(packetBytes)"
vector 77  Scenario.open_flow_switch.eth[0].mac  passedUpPk:vector(packetBytes)  ETV
attr interpolationmode  none
attr source  packetSentToUpper
attr title  "packets passed to higher layer, vector(packetBytes)"
vector 85  Scenario.open_flow_switch.eth[0].encap  decapPk:vector(packetBytes)  ETV
attr interpolationmode  none
attr source  decapPk
attr title  "packets decapsulated, vector(packetBytes)"
vector 109  Scenario.controller.tcp  "rcvd seq"  ETV
vector 110  Scenario.controller.tcp  "rcvd ack"  ETV
vector 106  Scenario.controller.tcp  "advertised window"  ETV
vector 104  Scenario.controller.tcp  "send window"  ETV
vector 119  Scenario.controller.tcp  tcpRcvQueueBytes  ETV
vector 105  Scenario.controller.tcp  "receive window"  ETV
vector 108  Scenario.controller.tcp  "sent ack"  ETV
vector 133  Scenario.open_flow_switch.tcp  "rcvd seq"  ETV
vector 134  Scenario.open_flow_switch.tcp  "rcvd ack"  ETV
vector 128  Scenario.open_flow_switch.tcp  "send window"  ETV
vector 111  Scenario.controller.tcp  "unacked bytes"  ETV
vector 107  Scenario.controller.tcp  "sent seq"  ETV
vector 136  Scenario.open_flow_switch.tcp  "rcvd dupAcks"  ETV
vector 131  Scenario.open_flow_switch.tcp  "sent seq"  ETV
vector 135  Scenario.open_flow_switch.tcp  "unacked bytes"  ETV
vector 123  Scenario.controller.tcp  "measured RTT"  ETV
vector 124  Scenario.controller.tcp  "smoothed RTT"  ETV
vector 125  Scenario.controller.tcp  RTTVAR  ETV
vector 126  Scenario.controller.tcp  RTO  ETV
vector 121  Scenario.controller.tcp  cwnd  ETV
vector 112  Scenario.controller.tcp  "rcvd dupAcks"  ETV
vector 147  Scenario.open_flow_switch.tcp  "measured RTT"  ETV
vector 148  Scenario.open_flow_switch.tcp  "smoothed RTT"  ETV
vector 149  Scenario.open_flow_switch.tcp  RTTVAR  ETV
vector 150  Scenario.open_flow_switch.tcp  RTO  ETV
vector 145  Scenario.open_flow_switch.tcp  cwnd  ETV
vector 1  Scenario.client.udpApp[0]  sentPk:vector(packetBytes)  ETV
attr interpolationmode  none
attr source  sentPk
attr title  "packets sent, vector(packetBytes)"
vector 3  Scenario.client.udp  sentPk:vector(packetBytes)  ETV
attr interpolationmode  none
attr source  sentPk
attr title  "packets sent, vector(packetBytes)"
vector 4  Scenario.client.udp  sentPk:vector(count)  ETV
attr interpolationmode  none
attr source  sentPk
attr title  "packets sent, vector(count)"
vector 9  Scenario.client.networkLayer.arp  sentReq:vector  ETV
attr title  "ARP request sent, vector"
vector 23  Scenario.client.eth[0].encap  encapPk:vector(packetBytes)  ETV
attr interpolationmode  none
attr source  encapPk
attr title  "packets encapsulated, vector(packetBytes)"
vector 19  Scenario.client.eth[0].mac  rxPkFromHL:vector(packetBytes)  ETV
attr interpolationmode  none
attr source  rxPkFromHL
attr title  "packet bytes from higher layer, vector(packetBytes)"
vector 14  Scenario.client.eth[0].mac  txPk:vector(packetBytes)  ETV
attr interpolationmode  none
attr source  txPk
attr title  "packets transmitted, vector(packetBytes)"
vector 52  Scenario.open_flow_switch.etherMAC[0]  rxPkOk:vector(packetBytes)  ETV
attr interpolationmode  none
attr source  rxPkOk
attr title  "packets received OK, vector(packetBytes)"
vector 53  Scenario.open_flow_switch.etherMAC[0]  passedUpPk:vector(packetBytes)  ETV
attr interpolationmode  none
attr source  packetSentToUpper
attr title  "packets passed to higher layer, vector(packetBytes)"
vector 67  Scenario.open_flow_switch.etherMAC[1]  rxPkFromHL:vector(packetBytes)  ETV
attr interpolationmode  none
attr source  rxPkFromHL
attr title  "packet bytes from higher layer, vector(packetBytes)"
vector 62  Scenario.open_flow_switch.etherMAC[1]  txPk:vector(packetBytes)  ETV
attr interpolationmode  none
attr source  txPk
attr title  "packets transmitted, vector(packetBytes)"
vector 40  Scenario.server.eth[0].mac  rxPkOk:vector(packetBytes)  ETV
attr interpolationmode  none
attr source  rxPkOk
attr title  "packets received OK, vector(packetBytes)"
vector 41  Scenario.server.eth[0].mac  passedUpPk:vector(packetBytes)  ETV
attr interpolationmode  none
attr source  packetSentToUpper
attr title  "packets passed to higher layer, vector(packetBytes)"
vector 49  Scenario.server.eth[0].encap  decapPk:vector(packetBytes)  ETV
attr interpolationmode  none
attr source  decapPk
attr title  "packets decapsulated, vector(packetBytes)"
vector 35  Scenario.server.networkLayer.arp  sentReply:vector  ETV
attr title  "ARP replies sent, vector"
vector 48  Scenario.server.eth[0].encap  encapPk:vector(packetBytes)  ETV
attr interpolationmode  none
attr source  encapPk
attr title  "packets encapsulated, vector(packetBytes)"
vector 44  Scenario.server.eth[0].mac  rxPkFromHL:vector(packetBytes)  ETV
attr interpolationmode  none
attr source  rxPkFromHL
attr title  "packet bytes from higher layer, vector(packetBytes)"
vector 39  Scenario.server.eth[0].mac  txPk:vector(packetBytes)  ETV
attr interpolationmode  none
attr source  txPk
attr title  "packets transmitted, vector(packetBytes)"
vector 63  Scenario.open_flow_switch.etherMAC[1]  rxPkOk:vector(packetBytes)  ETV
attr interpolationmode  none
attr source  rxPkOk
attr title  "packets received OK, vector(packetBytes)"
vector 64  Scenario.open_flow_switch.etherMAC[1]  passedUpPk:vector(packetBytes)  ETV
attr interpolationmode  none
attr source  packetSentToUpper
attr title  "packets passed to higher layer, vector(packetBytes)"
vector 56  Scenario.open_flow_switch.etherMAC[0]  rxPkFromHL:vector(packetBytes)  ETV
attr interpolationmode  none
attr source  rxPkFromHL
attr title  "packet bytes from higher layer, vector(packetBytes)"
vector 51  Scenario.open_flow_switch.etherMAC[0]  txPk:vector(packetBytes)  ETV
attr interpolationmode  none
attr source  txPk
attr title  "packets transmitted, vector(packetBytes)"
vector 15  Scenario.client.eth[0].mac  rxPkOk:vector(packetBytes)  ETV
attr interpolationmode  none
attr source  rxPkOk
attr title  "packets received OK, vector(packetBytes)"
vector 16  Scenario.client.eth[0].mac  passedUpPk:vector(packetBytes)  ETV
attr interpolationmode  none
attr source  packetSentToUpper
attr title  "packets passed to higher layer, vector(packetBytes)"
vector 24  Scenario.client.eth[0].encap  decapPk:vector(packetBytes)  ETV
attr interpolationmode  none
attr source  decapPk
attr title  "packets decapsulated, vector(packetBytes)"
vector 30  Scenario.server.udp  rcvdPk:vector(packetBytes)  ETV
attr interpolationmode  none
attr source  rcvdPk
attr title  "packets received, vector(packetBytes)"
vector 31  Scenario.server.udp  passedUpPk:vector(count)  ETV
attr interpolationmode  none
attr title  "packets passed up, vector(count)"
vector 26  Scenario.server.udpApp[0]  rcvdPk:vector(packetBytes)  ETV
attr interpolationmode  none
attr source  rcvdPk
attr title  "packets received, vector(packetBytes)"
vector 27  Scenario.server.udpApp[0]  rcvdPk:vector(count)  ETV
attr interpolationmode  none
attr source  rcvdPk
attr title  "packets received, vector(count)"
1	153	0.2	1250
1	566	0.4	1250
1	592	0.6	1250
1	618	0.8	1250
1	644	1	1250
1	670	1.2	1250
1	696	1.4	1250
1	722	1.6	1250
1	748	1.8	1250
1	774	2	1250
1	800	2.2	1250
1	826	2.4	1250
1	852	2.6	1250
1	878	2.8	1250
1	904	3	1250
1	930	3.2	1250
1	956	3.4	1250
1	982	3.6	1250
1	1008	3.8	1250
1	1034	4	1250
1	1060	4.2	1250
1	1086	4.4	1250
1	1112	4.6	1250
1	1138	4.8	1250
1	1164	5	1250
1	1190	5.2	1250
1	1216	5.4	1250
1	1242	5.6	1250
1	1268	5.8	1250
1	1294	6	1250
1	1320	6.2	1250
1	1346	6.4	1250
1	1372	6.6	1250
1	1398	6.8	1250
1	1424	7	1250
1	1450	7.2	1250
1	1476	7.4	1250
1	1502	7.6	1250
1	1528	7.8	1250
1	1554	8	1250
1	1580	8.2	1250
1	1606	8.4	1250
1	1632	8.6	1250
1	1658	8.8	1250
1	1684	9	1250
1	1710	9.2	1250
1	1736	9.4	1250
1	1762	9.6	1250
1	1788	9.8	1250
1	1814	10	1250
1	1840	10.2	1250
1	1866	10.4	1250
1	1892	10.6	1250
1	1918	10.8	1250
1	1944	11	1250
1	1970	11.2	1250
1	1996	11.4	1250
1	2022	11.6	1250
1	2048	11.8	1250
1	2074	12	1250
1	2100	12.2	1250
1	2126	12.4	1250
1	2152	12.6	1250
1	2178	12.8	1250
1	2204	13	1250
1	2230	13.2	1250
1	2256	13.4	1250
1	2282	13.6	1250
1	2308	13.8	1250
1	2334	14	1250
1	2360	14.2	1250
1	2386	14.4	1250
1	2412	14.6	1250
1	2438	14.8	1250
1	2465	15	1250
1	2552	15.2	1250
1	2578	15.4	1250
1	2604	15.6	1250
1	2630	15.8	1250
1	2656	16	1250
1	2682	16.2	1250
1	2708	16.4	1250
1	2734	16.6	1250
1	2760	16.8	1250
1	2786	17	1250
1	2812	17.2	1250
1	2838	17.4	1250
1	2864	17.6	1250
1	2890	17.8	1250
1	2916	18	1250
1	2942	18.2	1250
1	2968	18.4	1250
1	2994	18.6	1250
1	3020	18.8	1250
1	3046	19	1250
1	3072	19.2	1250
1	3098	19.4	1250
1	3124	19.6	1250
1	3150	19.8	1250
1	3176	20	1250
1	3202	20.2	1250
1	3228	20.4	1250
1	3254	20.6	1250
1	3280	20.8	1250
1	3306	21	1250
1	3332	21.2	1250
1	3358	21.4	1250
1	3384	21.6	1250
1	3410	21.8	1250
1	3436	22	1250
1	3462	22.2	1250
1	3488	22.4	1250
1	3514	22.6	1250
1	3540	22.8	1250
1	3566	23	1250
1	3592	23.2	1250
1	3618	23.4	1250
1	3644	23.6	1250
1	3670	23.8	1250
1	3696	24	1250
1	3722	24.2	1250
1	3748	24.4	1250
1	3774	24.6	1250
1	3800	24.8	1250
1	3826	25	1250
1	3852	25.2	1250
1	3878	25.4	1250
1	3904	25.6	1250
1	3930	25.8	1250
1	3956	26	1250
1	3982	26.2	1250
1	4008	26.4	1250
1	4034	26.6	1250
1	4060	26.8	1250
1	4086	27	1250
1	4112	27.2	1250
1	4138	27.4	1250
1	4164	27.6	1250
1	4190	27.8	1250
1	4216	28	1250
1	4242	28.2	1250
1	4268	28.4	1250
1	4294	28.6	1250
1	4320	28.8	1250
1	4346	29	1250
1	4372	29.2	1250
1	4398	29.4	1250
1	4424	29.6	1250
1	4450	29.8	1250
1	4477	30	1250
1	4564	30.2	1250
1	4590	30.4	1250
1	4616	30.6	1250
1	4642	30.8	1250
1	4668	31	1250
1	4694	31.2	1250
1	4720	31.4	1250
1	4746	31.6	1250
1	4772	31.8	1250
1	4798	32	1250
1	4824	32.2	1250
1	4850	32.4	1250
1	4876	32.6	1250
1	4902	32.8	1250
1	4928	33	1250
1	4954	33.2	1250
1	4980	33.4	1250
1	5006	33.6	1250
1	5032	33.8	1250
1	5058	34	1250
1	5084	34.2	1250
1	5110	34.4	1250
1	5136	34.6	1250
1	5162	34.8	1250
1	5188	35	1250
1	5214	35.2	1250
1	5240	35.4	1250
1	5266	35.6	1250
1	5292	35.8	1250
1	5318	36	1250
1	5344	36.2	1250
1	5370	36.4	1250
1	5396	36.6	1250
1	5422	36.8	1250
1	5448	37	1250
1	5474	37.2	1250
1	5500	37.4	1250
1	5526	37.6	1250
1	5552	37.8	1250
1	5578	38	1250
1	5604	38.2	1250
1	5630	38.4	1250
1	5656	38.6	1250
1	5682	38.8	1250
1	5708	39	1250
1	5734	39.2	1250
1	5760	39.4	1250
1	5786	39.6	1250
1	5812	39.8	1250
1	5838	40	1250
1	5864	40.2	1250
1	5890	40.4	1250
1	5916	40.6	1250
1	5942	40.8	1250
1	5968	41	1250
1	5994	41.2	1250
1	6020	41.4	1250
1	6046	41.6	1250
1	6072	41.8	1250
1	6098	42	1250
1	6124	42.2	1250
1	6150	42.4	1250
1	6176	42.6	1250
1	6202	42.8	1250
1	6228	43	1250
1	6254	43.2	1250
1	6280	43.4	1250
1	6306	43.6	1250
1	6332	43.8	1250
1	6358	44	1250
1	6384	44.2	1250
1	6410	44.4	1250
1	6436	44.6	1250
1	6462	44.8	1250
1	6489	45	1250
1	6576	45.2	1250
1	6602	45.4	1250
1	6628	45.6	1250
1	6654	45.8	1250
1	6680	46	1250
1	6706	46.2	1250
1	6732	46.4	1250
1	6758	46.6	1250
1	6784	46.8	1250
1	6810	47	1250
1	6836	47.2	1250
1	6862	47.4	1250
1	6888	47.6	1250
1	6914	47.8	1250
1	6940	48	1250
1	6966	48.2	1250
1	6992	48.4	1250
1	7018	48.6	1250
1	7044	48.8	1250
1	7070	49	1250
1	7096	49.2	1250
1	7122	49.4	1250
1	7148	49.6	1250
1	7174	49.8	1250
1	7200	50	1250
1	7226	50.2	1250
1	7252	50.4	1250
1	7278	50.6	1250
1	7304	50.8	1250
1	7330	51	1250
1	7356	51.2	1250
1	7382	51.4	1250
1	7408	51.6	1250
1	7434	51.8	1250
1	7460	52	1250
1	7486	52.2	1250
1	7512	52.4	1250
1	7538	52.6	1250
1	7564	52.8	1250
1	7590	53	1250
1	7616	53.2	1250
1	7642	53.4	1250
1	7668	53.6	1250
1	7694	53.8	1250
1	7720	54	1250
1	7746	54.2	1250
1	7772	54.4	1250
1	7798	54.6	1250
1	7824	54.8	1250
1	7850	55	1250
1	7876	55.2	1250
1	7902	55.4	1250
1	7928	55.6	1250
1	7954	55.8	1250
1	7980	56	1250
1	8006	56.2	1250
1	8032	56.4	1250
1	8058	56.6	1250
1	8084	56.8	1250
1	8110	57	1250
1	8136	57.2	1250
1	8162	57.4	1250
1	8188	57.6	1250
1	8214	57.8	1250
1	8240	58	1250
1	8266	58.2	1250
1	8292	58.4	1250
1	8318	58.6	1250
1	8344	58.8	1250
1	8370	59	1250
1	8396	59.2	1250
1	8422	59.4	1250
1	8448	59.6	1250
1	8474	59.8	1250
1	8501	60	1250
1	8588	60.2	1250
1	8678	60.4	1250
1	8704	60.6	1250
1	8730	60.8	1250
1	8756	61	1250
1	8782	61.2	1250
1	8808	61.4	1250
1	8834	61.6	1250
1	8860	61.8	1250
1	8886	62	1250
1	8912	62.2	1250
1	8938	62.4	1250
1	8964	62.6	1250
1	8990	62.8	1250
1	9016	63	1250
1	9042	63.2	1250
1	9068	63.4	1250
1	9094	63.6	1250
1	9120	63.8	1250
1	9146	64	1250
1	9172	64.2	1250
1	9198	64.4	1250
1	9224	64.6	1250
1	9250	64.8	1250
1	9276	65	1250
1	9302	65.2	1250
1	9328	65.4	1250
1	9354	65.6	1250
1	9380	65.8	1250
1	9406	66	1250
1	9432	66.2	1250
1	9458	66.4	1250
1	9484	66.6	1250
1	9510	66.8	1250
1	9536	67	1250
1	9562	67.2	1250
1	9588	67.4	1250
1	9614	67.6	1250
1	9640	67.8	1250
1	9666	68	1250
1	9692	68.2	1250
1	9718	68.4	1250
1	9744	68.6	1250
1	9770	68.8	1250
1	9796	69	1250
1	9822	69.2	1250
1	9848	69.4	1250
1	9874	69.6	1250
1	9900	69.8	1250
1	9926	70	1250
1	9952	70.2	1250
1	9978	70.4	1250
1	10004	70.6	1250
1	10030	70.8	1250
1	10056	71	1250
1	10082	71.2	1250
1	10108	71.4	1250
1	10134	71.6	1250
1	10160	71.8	1250
1	10186	72	1250
1	10212	72.2	1250
1	10238	72.4	1250
1	10264	72.6	1250
1	10290	72.8	1250
1	10316	73	1250
1	10342	73.2	1250
1	10368	73.4	1250
1	10394	73.6	1250
1	10420	73.8	1250
1	10446	74	1250
1	10472	74.2	1250
1	10498	74.4	1250
1	10524	74.6	1250
1	10550	74.8	1250
1	10577	75	1250
1	10664	75.2	1250
1	10690	75.4	1250
1	10716	75.6	1250
1	10742	75.8	1250
1	10768	76	1250
1	10794	76.2	1250
1	10820	76.4	1250
1	10846	76.6	1250
1	10872	76.8	1250
1	10898	77	1250
1	10924	77.2	1250
1	10950	77.4	1250
1	10976	77.6	1250
1	11002	77.8	1250
1	11028	78	1250
1	11054	78.2	1250
1	11080	78.4	1250
1	11106	78.6	1250
1	11132	78.8	1250
1	11158	79	1250
1	11184	79.2	1250
1	11210	79.4	1250
1	11236	79.6	1250
1	11262	79.8	1250
1	11288	80	1250
1	11314	80.2	1250
1	11340	80.4	1250
1	11366	80.6	1250
1	11392	80.8	1250
1	11418	81	1250
1	11444	81.2	1250
1	11470	81.4	1250
1	11496	81.6	1250
1	11522	81.8	1250
1	11548	82	1250
1	11574	82.2	1250
1	11600	82.4	1250
1	11626	82.6	1250
1	11652	82.8	1250
1	11678	83	1250
1	11704	83.2	1250
1	11730	83.4	1250
1	11756	83.6	1250
1	11782	83.8	1250
1	11808	84	1250
1	11834	84.2	1250
1	11860	84.4	1250
1	11886	84.6	1250
1	11912	84.8	1250
1	11938	85	1250
1	11964	85.2	1250
1	11990	85.4	1250
1	12016	85.6	1250
1	12042	85.8	1250
1	12068	86	1250
1	12094	86.2	1250
1	12120	86.4	1250
1	12146	86.6	1250
1	12172	86.8	1250
1	12198	87	1250
1	12224	87.2	1250
1	12250	87.4	1250
1	12276	87.6	1250
1	12302	87.8	1250
1	12328	88	1250
1	12354	88.2	1250
1	12380	88.4	1250
1	12406	88.6	1250
1	12432	88.8	1250
1	12458	89	1250
1	12484	89.2	1250
1	12510	89.4	1250
1	12536	89.6	1250
1	12562	89.8	1250
3	157	0.2	1258
3	568	0.4	1258
3	594	0.6	1258
3	620	0.8	1258
3	646	1	1258
3	672	1.2	1258
3	698	1.4	1258
3	724	1.6	1258
3	750	1.8	1258
3	776	2	1258
3	802	2.2	1258
3	828	2.4	1258
3	854	2.6	1258
3	880	2.8	1258
3	906	3	1258
3	932	3.2	1258
3	958	3.4	1258
3	984	3.6	1258
3	1010	3.8	1258
3	1036	4	1258
3	1062	4.2	1258
3	1088	4.4	1258
3	1114	4.6	1258
3	1140	4.8	1258
3	1166	5	1258
3	1192	5.2	1258
3	1218	5.4	1258
3	1244	5.6	1258
3	1270	5.8	1258
3	1296	6	1258
3	1322	6.2	1258
3	1348	6.4	1258
3	1374	6.6	1258
3	1400	6.8	1258
3	1426	7	1258
3	1452	7.2	1258
3	1478	7.4	1258
3	1504	7.6	1258
3	1530	7.8	1258
3	1556	8	1258
3	1582	8.2	1258
3	1608	8.4	1258
3	1634	8.6	1258
3	1660	8.8	1258
3	1686	9	1258
3	1712	9.2	1258
3	1738	9.4	1258
3	1764	9.6	1258
3	1790	9.8	1258
3	1816	10	1258
3	1842	10.2	1258
3	1868	10.4	1258
3	1894	10.6	1258
3	1920	10.8	1258
3	1946	11	1258
3	1972	11.2	1258
3	1998	11.4	1258
3	2024	11.6	1258
3	2050	11.8	1258
3	2076	12	1258
3	2102	12.2	1258
3	2128	12.4	1258
3	2154	12.6	1258
3	2180	12.8	1258
3	2206	13	1258
3	2232	13.2	1258
3	2258	13.4	1258
3	2284	13.6	1258
3	2310	13.8	1258
3	2336	14	1258
3	2362	14.2	1258
3	2388	14.4	1258
3	2414	14.6	1258
3	2440	14.8	1258
3	2469	15	1258
3	2554	15.2	1258
3	2580	15.4	1258
3	2606	15.6	1258
3	2632	15.8	1258
3	2658	16	1258
3	2684	16.2	1258
3	2710	16.4	1258
3	2736	16.6	1258
3	2762	16.8	1258
3	2788	17	1258
3	2814	17.2	1258
3	2840	17.4	1258
3	2866	17.6	1258
3	2892	17.8	1258
3	2918	18	1258
3	2944	18.2	1258
3	2970	18.4	1258
3	2996	18.6	1258
3	3022	18.8	1258
3	3048	19	1258
3	3074	19.2	1258
3	3100	19.4	1258
3	3126	19.6	1258
3	3152	19.8	1258
3	3178	20	1258
3	3204	20.2	1258
3	3230	20.4	1258
3	3256	20.6	1258
3	3282	20.8	1258
3	3308	21	1258
3	3334	21.2	1258
3	3360	21.4	1258
3	3386	21.6	1258
3	3412	21.8	1258
3	3438	22	1258
3	3464	22.2	1258
3	3490	22.4	1258
3	3516	22.6	1258
3	3542	22.8	1258
3	3568	23	1258
3	3594	23.2	1258
3	3620	23.4	1258
3	3646	23.6	1258
3	3672	23.8	1258
3	3698	24	1258
3	3724	24.2	1258
3	3750	24.4	1258
3	3776	24.6	1258
3	3802	24.8	1258
3	3828	25	1258
3	3854	25.2	1258
3	3880	25.4	1258
3	3906	25.6	1258
3	3932	25.8	1258
3	3958	26	1258
3	3984	26.2	1258
3	4010	26.4	1258
3	4036	26.6	1258
3	4062	26.8	1258
3	4088	27	1258
3	4114	27.2	1258
3	4140	27.4	1258
3	4166	27.6	1258
3	4192	27.8	1258
3	4218	28	1258
3	4244	28.2	1258
3	4270	28.4	1258
3	4296	28.6	1258
3	4322	28.8	1258
3	4348	29	1258
3	4374	29.2	1258
3	4400	29.4	1258
3	4426	29.6	1258
3	4452	29.8	1258
3	4481	30	1258
3	4566	30.2	1258
3	4592	30.4	1258
3	4618	30.6	1258
3	4644	30.8	1258
3	4670	31	1258
3	4696	31.2	1258
3	4722	31.4	1258
3	4748	31.6	1258
3	4774	31.8	1258
3	4800	32	1258
3	4826	32.2	1258
3	4852	32.4	1258
3	4878	32.6	1258
3	4904	32.8	1258
3	4930	33	1258
3	4956	33.2	1258
3	4982	33.4	1258
3	5008	33.6	1258
3	5034	33.8	1258
3	5060	34	1258
3	5086	34.2	1258
3	5112	34.4	1258
3	5138	34.6	1258
3	5164	34.8	1258
3	5190	35	1258
3	5216	35.2	1258
3	5242	35.4	1258
3	5268	35.6	1258
3	5294	35.8	1258
3	5320	36	1258
3	5346	36.2	1258
3	5372	36.4	1258
3	5398	36.6	1258
3	5424	36.8	1258
3	5450	37	1258
3	5476	37.2	1258
3	5502	37.4	1258
3	5528	37.6	1258
3	5554	37.8	1258
3	5580	38	1258
3	5606	38.2	1258
3	5632	38.4	1258
3	5658	38.6	1258
3	5684	38.8	1258
3	5710	39	1258
3	5736	39.2	1258
3	5762	39.4	1258
3	5788	39.6	1258
3	5814	39.8	1258
3	5840	40	1258
3	5866	40.2	1258
3	5892	40.4	1258
3	5918	40.6	1258
3	5944	40.8	1258
3	5970	41	1258
3	5996	41.2	1258
3	6022	41.4	1258
3	6048	41.6	1258
3	6074	41.8	1258
3	6100	42	1258
3	6126	42.2	1258
3	6152	42.4	1258
3	6178	42.6	1258
3	6204	42.8	1258
3	6230	43	1258
3	6256	43.2	1258
3	6282	43.4	1258
3	6308	43.6	1258
3	6334	43.8	1258
3	6360	44	1258
3	6386	44.2	1258
3	6412	44.4	1258
3	6438	44.6	1258
3	6464	44.8	1258
3	6493	45	1258
3	6578	45.2	1258
3	6604	45.4	1258
3	6630	45.6	1258
3	6656	45.8	1258
3	6682	46	1258
3	6708	46.2	1258
3	6734	46.4	1258
3	6760	46.6	1258
3	6786	46.8	1258
3	6812	47	1258
3	6838	47.2	1258
3	6864	47.4	1258
3	6890	47.6	1258
3	6916	47.8	1258
3	6942	48	1258
3	6968	48.2	1258
3	6994	48.4	1258
3	7020	48.6	1258
3	7046	48.8	1258
3	7072	49	1258
3	7098	49.2	1258
3	7124	49.4	1258
3	7150	49.6	1258
3	7176	49.8	1258
3	7202	50	1258
3	7228	50.2	1258
3	7254	50.4	1258
3	7280	50.6	1258
3	7306	50.8	1258
3	7332	51	1258
3	7358	51.2	1258
3	7384	51.4	1258
3	7410	51.6	1258
3	7436	51.8	1258
3	7462	52	1258
3	7488	52.2	1258
3	7514	52.4	1258
3	7540	52.6	1258
3	7566	52.8	1258
3	7592	53	1258
3	7618	53.2	1258
3	7644	53.4	1258
3	7670	53.6	1258
3	7696	53.8	1258
3	7722	54	1258
3	7748	54.2	1258
3	7774	54.4	1258
3	7800	54.6	1258
3	7826	54.8	1258
3	7852	55	1258
3	7878	55.2	1258
3	7904	55.4	1258
3	7930	55.6	1258
3	7956	55.8	1258
3	7982	56	1258
3	8008	56.2	1258
3	8034	56.4	1258
3	8060	56.6	1258
3	8086	56.8	1258
3	8112	57	1258
3	8138	57.2	1258
3	8164	57.4	1258
3	8190	57.6	1258
3	8216	57.8	1258
3	8242	58	1258
3	8268	58.2	1258
3	8294	58.4	1258
3	8320	58.6	1258
3	8346	58.8	1258
3	8372	59	1258
3	8398	59.2	1258
3	8424	59.4	1258
3	8450	59.6	1258
3	8476	59.8	1258
3	8505	60	1258
3	8590	60.2	1258
3	8680	60.4	1258
3	8706	60.6	1258
3	8732	60.8	1258
3	8758	61	1258
3	8784	61.2	1258
3	8810	61.4	1258
3	8836	61.6	1258
3	8862	61.8	1258
3	8888	62	1258
3	8914	62.2	1258
3	8940	62.4	1258
3	8966	62.6	1258
3	8992	62.8	1258
3	9018	63	1258
3	9044	63.2	1258
3	9070	63.4	1258
3	9096	63.6	1258
3	9122	63.8	1258
3	9148	64	1258
3	9174	64.2	1258
3	9200	64.4	1258
3	9226	64.6	1258
3	9252	64.8	1258
3	9278	65	1258
3	9304	65.2	1258
3	9330	65.4	1258
3	9356	65.6	1258
3	9382	65.8	1258
3	9408	66	1258
3	9434	66.2	1258
3	9460	66.4	1258
3	9486	66.6	1258
3	9512	66.8	1258
3	9538	67	1258
3	9564	67.2	1258
3	9590	67.4	1258
3	9616	67.6	1258
3	9642	67.8	1258
3	9668	68	1258
3	9694	68.2	1258
3	9720	68.4	1258
3	9746	68.6	1258
3	9772	68.8	1258
3	9798	69	1258
3	9824	69.2	1258
3	9850	69.4	1258
3	9876	69.6	1258
3	9902	69.8	1258
3	9928	70	1258
3	9954	70.2	1258
3	9980	70.4	1258
3	10006	70.6	1258
3	10032	70.8	1258
3	10058	71	1258
3	10084	71.2	1258
3	10110	71.4	1258
3	10136	71.6	1258
3	10162	71.8	1258
3	10188	72	1258
3	10214	72.2	1258
3	10240	72.4	1258
3	10266	72.6	1258
3	10292	72.8	1258
3	10318	73	1258
3	10344	73.2	1258
3	10370	73.4	1258
3	10396	73.6	1258
3	10422	73.8	1258
3	10448	74	1258
3	10474	74.2	1258
3	10500	74.4	1258
3	10526	74.6	1258
3	10552	74.8	1258
3	10581	75	1258
3	10666	75.2	1258
3	10692	75.4	1258
3	10718	75.6	1258
3	10744	75.8	1258
3	10770	76	1258
3	10796	76.2	1258
3	10822	76.4	1258
3	10848	76.6	1258
3	10874	76.8	1258
3	10900	77	1258
3	10926	77.2	1258
3	10952	77.4	1258
3	10978	77.6	1258
3	11004	77.8	1258
3	11030	78	1258
3	11056	78.2	1258
3	11082	78.4	1258
3	11108	78.6	1258
3	11134	78.8	1258
3	11160	79	1258
3	11186	79.2	1258
3	11212	79.4	1258
3	11238	79.6	1258
3	11264	79.8	1258
3	11290	80	1258
3	11316	80.2	1258
3	11342	80.4	1258
3	11368	80.6	1258
3	11394	80.8	1258
3	11420	81	1258
3	11446	81.2	1258
3	11472	81.4	1258
3	11498	81.6	1258
3	11524	81.8	1258
3	11550	82	1258
3	11576	82.2	1258
3	11602	82.4	1258
3	11628	82.6	1258
3	11654	82.8	1258
3	11680	83	1258
3	11706	83.2	1258
3	11732	83.4	1258
3	11758	83.6	1258
3	11784	83.8	1258
3	11810	84	1258
3	11836	84.2	1258
3	11862	84.4	1258
3	11888	84.6	1258
3	11914	84.8	1258
3	11940	85	1258
3	11966	85.2	1258
3	11992	85.4	1258
3	12018	85.6	1258
3	12044	85.8	1258
3	12070	86	1258
3	12096	86.2	1258
3	12122	86.4	1258
3	12148	86.6	1258
3	12174	86.8	1258
3	12200	87	1258
3	12226	87.2	1258
3	12252	87.4	1258
3	12278	87.6	1258
3	12304	87.8	1258
3	12330	88	1258
3	12356	88.2	1258
3	12382	88.4	1258
3	12408	88.6	1258
3	12434	88.8	1258
3	12460	89	1258
3	12486	89.2	1258
3	12512	89.4	1258
3	12538	89.6	1258
3	12564	89.8	1258
4	157	0.2	1
4	568	0.4	2
4	594	0.6	3
4	620	0.8	4
4	646	1	5
4	672	1.2	6
4	698	1.4	7
4	724	1.6	8
4	750	1.8	9
4	776	2	10
4	802	2.2	11
4	828	2.4	12
4	854	2.6	13
4	880	2.8	14
4	906	3	15
4	932	3.2	16
4	958	3.4	17
4	984	3.6	18
4	1010	3.8	19
4	1036	4	20
4	1062	4.2	21
4	1088	4.4	22
4	1114	4.6	23
4	1140	4.8	24
4	1166	5	25
4	1192	5.2	26
4	1218	5.4	27
4	1244	5.6	28
4	1270	5.8	29
4	1296	6	30
4	1322	6.2	31
4	1348	6.4	32
4	1374	6.6	33
4	1400	6.8	34
4	1426	7	35
4	1452	7.2	36
4	1478	7.4	37
4	1504	7.6	38
4	1530	7.8	39
4	1556	8	40
4	1582	8.2	41
4	1608	8.4	42
4	1634	8.6	43
4	1660	8.8	44
4	1686	9	45
4	1712	9.2	46
4	1738	9.4	47
4	1764	9.6	48
4	1790	9.8	49
4	1816	10	50
4	1842	10.2	51
4	1868	10.4	52
4	1894	10.6	53
4	1920	10.8	54
4	1946	11	55
4	1972	11.2	56
4	1998	11.4	57
4	2024	11.6	58
4	2050	11.8	59
4	2076	12	60
4	2102	12.2	61
4	2128	12.4	62
4	2154	12.6	63
4	2180	12.8	64
4	2206	13	65
4	2232	13.2	66
4	2258	13.4	67
4	2284	13.6	68
4	2310	13.8	69
4	2336	14	70
4	2362	14.2	71
4	2388	14.4	72
4	2414	14.6	73
4	2440	14.8	74
4	2469	15	75
4	2554	15.2	76
4	2580	15.4	77
4	2606	15.6	78
4	2632	15.8	79
4	2658	16	80
4	2684	16.2	81
4	2710	16.4	82
4	2736	16.6	83
4	2762	16.8	84
4	2788	17	85
4	2814	17.2	86
4	2840	17.4	87
4	2866	17.6	88
4	2892	17.8	89
4	2918	18	90
4	2944	18.2	91
4	2970	18.4	92
4	2996	18.6	93
4	3022	18.8	94
4	3048	19	95
4	3074	19.2	96
4	3100	19.4	97
4	3126	19.6	98
4	3152	19.8	99
4	3178	20	100
4	3204	20.2	101
4	3230	20.4	102
4	3256	20.6	103
4	3282	20.8	104
4	3308	21	105
4	3334	21.2	106
4	3360	21.4	107
4	3386	21.6	108
4	3412	21.8	109
4	3438	22	110
4	3464	22.2	111
4	3490	22.4	112
4	3516	22.6	113
4	3542	22.8	114
4	3568	23	115
4	3594	23.2	116
4	3620	23.4	117
4	3646	23.6	118
4	3672	23.8	119
4	3698	24	120
4	3724	24.2	121
4	3750	24.4	122
4	3776	24.6	123
4	3802	24.8	124
4	3828	25	125
4	3854	25.2	126
4	3880	25.4	127
4	3906	25.6	128
4	3932	25.8	129
4	3958	26	130
4	3984	26.2	131
4	4010	26.4	132
4	4036	26.6	133
4	4062	26.8	134
4	4088	27	135
4	4114	27.2	136
4	4140	27.4	137
4	4166	27.6	138
4	4192	27.8	139
4	4218	28	140
4	4244	28.2	141
4	4270	28.4	142
4	4296	28.6	143
4	4322	28.8	144
4	4348	29	145
4	4374	29.2	146
4	4400	29.4	147
4	4426	29.6	148
4	4452	29.8	149
4	4481	30	150
4	4566	30.2	151
4	4592	30.4	152
4	4618	30.6	153
4	4644	30.8	154
4	4670	31	155
4	4696	31.2	156
4	4722	31.4	157
4	4748	31.6	158
4	4774	31.8	159
4	4800	32	160
4	4826	32.2	161
4	4852	32.4	162
4	4878	32.6	163
4	4904	32.8	164
4	4930	33	165
4	4956	33.2	166
4	4982	33.4	167
4	5008	33.6	168
4	5034	33.8	169
4	5060	34	170
4	5086	34.2	171
4	5112	34.4	172
4	5138	34.6	173
4	5164	34.8	174
4	5190	35	175
4	5216	35.2	176
4	5242	35.4	177
4	5268	35.6	178
4	5294	35.8	179
4	5320	36	180
4	5346	36.2	181
4	5372	36.4	182
4	5398	36.6	183
4	5424	36.8	184
4	5450	37	185
4	5476	37.2	186
4	5502	37.4	187
4	5528	37.6	188
4	5554	37.8	189
4	5580	38	190
4	5606	38.2	191
4	5632	38.4	192
4	5658	38.6	193
4	5684	38.8	194
4	5710	39	195
4	5736	39.2	196
4	5762	39.4	197
4	5788	39.6	198
4	5814	39.8	199
4	5840	40	200
4	5866	40.2	201
4	5892	40.4	202
4	5918	40.6	203
4	5944	40.8	204
4	5970	41	205
4	5996	41.2	206
4	6022	41.4	207
4	6048	41.6	208
4	6074	41.8	209
4	6100	42	210
4	6126	42.2	211
4	6152	42.4	212
4	6178	42.6	213
4	6204	42.8	214
4	6230	43	215
4	6256	43.2	216
4	6282	43.4	217
4	6308	43.6	218
4	6334	43.8	219
4	6360	44	220
4	6386	44.2	221
4	6412	44.4	222
4	6438	44.6	223
4	6464	44.8	224
4	6493	45	225
4	6578	45.2	226
4	6604	45.4	227
4	6630	45.6	228
4	6656	45.8	229
4	6682	46	230
4	6708	46.2	231
4	6734	46.4	232
4	6760	46.6	233
4	6786	46.8	234
4	6812	47	235
4	6838	47.2	236
4	6864	47.4	237
4	6890	47.6	238
4	6916	47.8	239
4	6942	48	240
4	6968	48.2	241
4	6994	48.4	242
4	7020	48.6	243
4	7046	48.8	244
4	7072	49	245
4	7098	49.2	246
4	7124	49.4	247
4	7150	49.6	248
4	7176	49.8	249
4	7202	50	250
4	7228	50.2	251
4	7254	50.4	252
4	7280	50.6	253
4	7306	50.8	254
4	7332	51	255
4	7358	51.2	256
4	7384	51.4	257
4	7410	51.6	258
4	7436	51.8	259
4	7462	52	260
4	7488	52.2	261
4	7514	52.4	262
4	7540	52.6	263
4	7566	52.8	264
4	7592	53	265
4	7618	53.2	266
4	7644	53.4	267
4	7670	53.6	268
4	7696	53.8	269
4	7722	54	270
4	7748	54.2	271
4	7774	54.4	272
4	7800	54.6	273
4	7826	54.8	274
4	7852	55	275
4	7878	55.2	276
4	7904	55.4	277
4	7930	55.6	278
4	7956	55.8	279
4	7982	56	280
4	8008	56.2	281
4	8034	56.4	282
4	8060	56.6	283
4	8086	56.8	284
4	8112	57	285
4	8138	57.2	286
4	8164	57.4	287
4	8190	57.6	288
4	8216	57.8	289
4	8242	58	290
4	8268	58.2	291
4	8294	58.4	292
4	8320	58.6	293
4	8346	58.8	294
4	8372	59	295
4	8398	59.2	296
4	8424	59.4	297
4	8450	59.6	298
4	8476	59.8	299
4	8505	60	300
4	8590	60.2	301
4	8680	60.4	302
4	8706	60.6	303
4	8732	60.8	304
4	8758	61	305
4	8784	61.2	306
4	8810	61.4	307
4	8836	61.6	308
4	8862	61.8	309
4	8888	62	310
4	8914	62.2	311
4	8940	62.4	312
4	8966	62.6	313
4	8992	62.8	314
4	9018	63	315
4	9044	63.2	316
4	9070	63.4	317
4	9096	63.6	318
4	9122	63.8	319
4	9148	64	320
4	9174	64.2	321
4	9200	64.4	322
4	9226	64.6	323
4	9252	64.8	324
4	9278	65	325
4	9304	65.2	326
4	9330	65.4	327
4	9356	65.6	328
4	9382	65.8	329
4	9408	66	330
4	9434	66.2	331
4	9460	66.4	332
4	9486	66.6	333
4	9512	66.8	334
4	9538	67	335
4	9564	67.2	336
4	9590	67.4	337
4	9616	67.6	338
4	9642	67.8	339
4	9668	68	340
4	9694	68.2	341
4	9720	68.4	342
4	9746	68.6	343
4	9772	68.8	344
4	9798	69	345
4	9824	69.2	346
4	9850	69.4	347
4	9876	69.6	348
4	9902	69.8	349
4	9928	70	350
4	9954	70.2	351
4	9980	70.4	352