file 2311249 1472201443                                         
version 2
run Simple_attack-0-20160826-10:49:17-9541
attr configname Simple_attack
attr datetime 20160826-10:49:17
attr experiment Simple_attack
attr inifile omnetpp.ini
attr iterationvars ""
attr iterationvars2 $repetition=0
attr measurement ""
attr network Scenario
attr processid 9541
attr repetition 0
attr replication #0
attr resultdir results
attr runnumber 0
attr seedset 0

vector 144  Scenario.open_flow_switch.tcp  tcpRcvQueueBytes  ETV
vector 131  Scenario.open_flow_switch.tcp  "advertised window"  ETV
vector 130  Scenario.open_flow_switch.tcp  "receive window"  ETV
vector 133  Scenario.open_flow_switch.tcp  "sent ack"  ETV
vector 74  Scenario.open_flow_switch.networkLayer.arp  sentReq:vector  ETV
attr title  "ARP request sent, vector"
vector 85  Scenario.open_flow_switch.eth[0].encap  encapPk:vector(packetBytes)  ETV
attr interpolationmode  none
attr source  encapPk
attr title  "packets encapsulated, vector(packetBytes)"
vector 81  Scenario.open_flow_switch.eth[0].mac  rxPkFromHL:vector(packetBytes)  ETV
attr interpolationmode  none
attr source  rxPkFromHL
attr title  "packet bytes from higher layer, vector(packetBytes)"
vector 76  Scenario.open_flow_switch.eth[0].mac  txPk:vector(packetBytes)  ETV
attr interpolationmode  none
attr source  txPk
attr title  "packets transmitted, vector(packetBytes)"
vector 94  Scenario.controller.eth[0].mac  rxPkOk:vector(packetBytes)  ETV
attr interpolationmode  none
attr source  rxPkOk
attr title  "packets received OK, vector(packetBytes)"
vector 95  Scenario.controller.eth[0].mac  passedUpPk:vector(packetBytes)  ETV
attr interpolationmode  none
attr source  packetSentToUpper
attr title  "packets passed to higher layer, vector(packetBytes)"
vector 103  Scenario.controller.eth[0].encap  decapPk:vector(packetBytes)  ETV
attr interpolationmode  none
attr source  decapPk
attr title  "packets decapsulated, vector(packetBytes)"
vector 89  Scenario.controller.networkLayer.arp  sentReply:vector  ETV
attr title  "ARP replies sent, vector"
vector 102  Scenario.controller.eth[0].encap  encapPk:vector(packetBytes)  ETV
attr interpolationmode  none
attr source  encapPk
attr title  "packets encapsulated, vector(packetBytes)"
vector 98  Scenario.controller.eth[0].mac  rxPkFromHL:vector(packetBytes)  ETV
attr interpolationmode  none
attr source  rxPkFromHL
attr title  "packet bytes from higher layer, vector(packetBytes)"
vector 93  Scenario.controller.eth[0].mac  txPk:vector(packetBytes)  ETV
attr interpolationmode  none
attr source  txPk
attr title  "packets transmitted, vector(packetBytes)"
vector 77  Scenario.open_flow_switch.eth[0].mac  rxPkOk:vector(packetBytes)  ETV
attr interpolationmode  none
attr source  rxPkOk
attr title  "packets received OK, vector(packetBytes)"
vector 78  Scenario.open_flow_switch.eth[0].mac  passedUpPk:vector(packetBytes)  ETV
attr interpolationmode  none
attr source  packetSentToUpper
attr title  "packets passed to higher layer, vector(packetBytes)"
vector 86  Scenario.open_flow_switch.eth[0].encap  decapPk:vector(packetBytes)  ETV
attr interpolationmode  none
attr source  decapPk
attr title  "packets decapsulated, vector(packetBytes)"
vector 110  Scenario.controller.tcp  "rcvd seq"  ETV
vector 111  Scenario.controller.tcp  "rcvd ack"  ETV
vector 107  Scenario.controller.tcp  "advertised window"  ETV
vector 105  Scenario.controller.tcp  "send window"  ETV
vector 120  Scenario.controller.tcp  tcpRcvQueueBytes  ETV
vector 106  Scenario.controller.tcp  "receive window"  ETV
vector 109  Scenario.controller.tcp  "sent ack"  ETV
vector 134  Scenario.open_flow_switch.tcp  "rcvd seq"  ETV
vector 135  Scenario.open_flow_switch.tcp  "rcvd ack"  ETV
vector 129  Scenario.open_flow_switch.tcp  "send window"  ETV
vector 112  Scenario.controller.tcp  "unacked bytes"  ETV
vector 108  Scenario.controller.tcp  "sent seq"  ETV
vector 137  Scenario.open_flow_switch.tcp  "rcvd dupAcks"  ETV
vector 132  Scenario.open_flow_switch.tcp  "sent seq"  ETV
vector 136  Scenario.open_flow_switch.tcp  "unacked bytes"  ETV
vector 124  Scenario.controller.tcp  "measured RTT"  ETV
vector 125  Scenario.controller.tcp  "smoothed RTT"  ETV
vector 126  Scenario.controller.tcp  RTTVAR  ETV
vector 127  Scenario.controller.tcp  RTO  ETV
vector 122  Scenario.controller.tcp  cwnd  ETV
vector 113  Scenario.controller.tcp  "rcvd dupAcks"  ETV
vector 148  Scenario.open_flow_switch.tcp  "measured RTT"  ETV
vector 149  Scenario.open_flow_switch.tcp  "smoothed RTT"  ETV
vector 150  Scenario.open_flow_switch.tcp  RTTVAR  ETV
vector 151  Scenario.open_flow_switch.tcp  RTO  ETV
vector 146  Scenario.open_flow_switch.tcp  cwnd  ETV
vector 1  Scenario.client.udpApp[0]  sentPk:vector(packetBytes)  ETV
attr interpolationmode  none
attr source  sentPk
attr title  "packets sent, vector(packetBytes)"
vector 3  Scenario.client.udp  sentPk:vector(packetBytes)  ETV
attr interpolationmode  none
attr source  sentPk
attr title  "packets sent, vector(packetBytes)"
vector 4  Scenario.client.udp  sentPk:vector(count)  ETV
attr interpolationmode  none
attr source  sentPk
attr title  "packets sent, vector(count)"
vector 9  Scenario.client.networkLayer.arp  sentReq:vector  ETV
attr title  "ARP request sent, vector"
vector 23  Scenario.client.eth[0].encap  encapPk:vector(packetBytes)  ETV
attr interpolationmode  none
attr source  encapPk
attr title  "packets encapsulated, vector(packetBytes)"
vector 19  Scenario.client.eth[0].mac  rxPkFromHL:vector(packetBytes)  ETV
attr interpolationmode  none
attr source  rxPkFromHL
attr title  "packet bytes from higher layer, vector(packetBytes)"
vector 14  Scenario.client.eth[0].mac  txPk:vector(packetBytes)  ETV
attr interpolationmode  none
attr source  txPk
attr title  "packets transmitted, vector(packetBytes)"
vector 53  Scenario.open_flow_switch.etherMAC[0]  rxPkOk:vector(packetBytes)  ETV
attr interpolationmode  none
attr source  rxPkOk
attr title  "packets received OK, vector(packetBytes)"
vector 54  Scenario.open_flow_switch.etherMAC[0]  passedUpPk:vector(packetBytes)  ETV
attr interpolationmode  none
attr source  packetSentToUpper
attr title  "packets passed to higher layer, vector(packetBytes)"
vector 68  Scenario.open_flow_switch.etherMAC[1]  rxPkFromHL:vector(packetBytes)  ETV
attr interpolationmode  none
attr source  rxPkFromHL
attr title  "packet bytes from higher layer, vector(packetBytes)"
vector 63  Scenario.open_flow_switch.etherMAC[1]  txPk:vector(packetBytes)  ETV
attr interpolationmode  none
attr source  txPk
attr title  "packets transmitted, vector(packetBytes)"
vector 41  Scenario.server.eth[0].mac  rxPkOk:vector(packetBytes)  ETV
attr interpolationmode  none
attr source  rxPkOk
attr title  "packets received OK, vector(packetBytes)"
vector 42  Scenario.server.eth[0].mac  passedUpPk:vector(packetBytes)  ETV
attr interpolationmode  none
attr source  packetSentToUpper
attr title  "packets passed to higher layer, vector(packetBytes)"
vector 50  Scenario.server.eth[0].encap  decapPk:vector(packetBytes)  ETV
attr interpolationmode  none
attr source  decapPk
attr title  "packets decapsulated, vector(packetBytes)"
vector 36  Scenario.server.networkLayer.arp  sentReply:vector  ETV
attr title  "ARP replies sent, vector"
vector 49  Scenario.server.eth[0].encap  encapPk:vector(packetBytes)  ETV
attr interpolationmode  none
attr source  encapPk
attr title  "packets encapsulated, vector(packetBytes)"
vector 45  Scenario.server.eth[0].mac  rxPkFromHL:vector(packetBytes)  ETV
attr interpolationmode  none
attr source  rxPkFromHL
attr title  "packet bytes from higher layer, vector(packetBytes)"
vector 40  Scenario.server.eth[0].mac  txPk:vector(packetBytes)  ETV
attr interpolationmode  none
attr source  txPk
attr title  "packets transmitted, vector(packetBytes)"
vector 64  Scenario.open_flow_switch.etherMAC[1]  rxPkOk:vector(packetBytes)  ETV
attr interpolationmode  none
attr source  rxPkOk
attr title  "packets received OK, vector(packetBytes)"
vector 65  Scenario.open_flow_switch.etherMAC[1]  passedUpPk:vector(packetBytes)  ETV
attr interpolationmode  none
attr source  packetSentToUpper
attr title  "packets passed to higher layer, vector(packetBytes)"
vector 57  Scenario.open_flow_switch.etherMAC[0]  rxPkFromHL:vector(packetBytes)  ETV
attr interpolationmode  none
attr source  rxPkFromHL
attr title  "packet bytes from higher layer, vector(packetBytes)"
vector 52  Scenario.open_flow_switch.etherMAC[0]  txPk:vector(packetBytes)  ETV
attr interpolationmode  none
attr source  txPk
attr title  "packets transmitted, vector(packetBytes)"
vector 15  Scenario.client.eth[0].mac  rxPkOk:vector(packetBytes)  ETV
attr interpolationmode  none
attr source  rxPkOk
attr title  "packets received OK, vector(packetBytes)"
vector 16  Scenario.client.eth[0].mac  passedUpPk:vector(packetBytes)  ETV
attr interpolationmode  none
attr source  packetSentToUpper
attr title  "packets passed to higher layer, vector(packetBytes)"
vector 24  Scenario.client.eth[0].encap  decapPk:vector(packetBytes)  ETV
attr interpolationmode  none
attr source  decapPk
attr title  "packets decapsulated, vector(packetBytes)"
vector 31  Scenario.server.udp  rcvdPk:vector(packetBytes)  ETV
attr interpolationmode  none
attr source  rcvdPk
attr title  "packets received, vector(packetBytes)"
vector 32  Scenario.server.udp  passedUpPk:vector(count)  ETV
attr interpolationmode  none
attr title  "packets passed up, vector(count)"
vector 26  Scenario.server.udpApp[0]  rcvdPk:vector(packetBytes)  ETV
attr interpolationmode  none
attr source  rcvdPk
attr title  "packets received, vector(packetBytes)"
vector 27  Scenario.server.udpApp[0]  rcvdPk:vector(count)  ETV
attr interpolationmode  none
attr source  rcvdPk
attr title  "packets received, vector(count)"
vector 28  Scenario.server.udpApp[0]  rcvdAppPkt:vector  ETV
attr interpolationmode  none
attr source  rcvdAppPkt
attr title  "packets received during sec, vector"
vector 88  Scenario.controller.networkLayer.arp  sentReq:vector  ETV
attr title  "ARP request sent, vector"
vector 75  Scenario.open_flow_switch.networkLayer.arp  sentReply:vector  ETV
attr title  "ARP replies sent, vector"
1	10098 13143 153 141687 0.2 149.8 749 1250 1250 936250 1170312500
3	23241 176133 157 141996 0.2 149.99999999896 6750 8 1258 990250 1185724500
4	199374 193029 157 141996 0.2 149.99999999896 6750 1 6750 22784625 102538407375
9	392403 38 159 94903 0.2 120.20999999968 2 1 1 2 2
14	392441 195638 165 141988 0.20000576 149.99000575896 6751 64 1296 1354832 1282616576
15	588079 54 339 95083 0.200099919998 120.210099919678 2 64 64 128 8192
16	588133 54 339 95083 0.200099919998 120.210099919678 2 64 64 128 8192
19	588187 188939 163 142001 0.2 149.99999999896 6752 64 1296 1354896 1282620672
23	777126 188939 162 142000 0.2 149.99999999896 6752 28 1278 1125306 1228036068
24	966065 54 341 95085 0.200099919998 120.210099919678 2 28 28 56 1568
26	966119 98553 565 94495 0.200569039992 120.000013519683 3600 0 1250 748750 935937500
27	1064672 106449 565 94495 0.200569039992 120.000013519683 3600 1 3600 6481800 15558480600
28	1171121 2881 669 94495 1.00021064 120.000013519683 120 5 105 3600 333000
31	1174002 98553 563 94493 0.200569039992 120.000013519683 3600 8 1258 777550 948147900
32	1272555 106449 563 94493 0.200569039992 120.000013519683 3600 1 3600 6481800 15558480600
36	1379004 52 237 94981 0.200043199999 120.210043199679 2 1 1 2 2
40	1379056 54 245 94989 0.200048959999 120.210048959679 2 64 64 128 8192
41	1379110 101608 229 94973 0.200043199999 120.210043199679 3602 64 1296 968496 1018390272
42	1480718 101608 229 94973 0.200043199999 120.210043199679 3602 64 1296 968496 1018390272
45	1582326 54 243 94987 0.200043199999 120.210043199679 2 64 64 128 8192
49	1582380 54 242 94986 0.200043199999 120.210043199679 2 28 28 56 1568
50	1582434 101608 231 94975 0.200043199999 120.210043199679 3602 28 1278 849606 980691468
52	1684042 54 335 95079 0.200098919998 120.210098919678 2 64 64 128 8192
53	1684096 195638 167 141990 0.20000676 149.99000675896 6751 64 1296 1354832 1282616576
54	1879734 195638 167 141990 0.20000676 149.99000675896 6751 64 1296 1354832 1282616576
57	2075372 54 331 95075 0.200093159998 120.210093159678 2 64 64 128 8192
63	2075426 101607 225 94969 0.200042199999 120.210042199679 3602 64 1296 968496 1018390272
64	2177033 54 247 94991 0.200049959999 120.210049959679 2 64 64 128 8192
65	2177087 54 247 94991 0.200049959999 120.210049959679 2 64 64 128 8192
68	2177141 101606 221 94965 0.200036439999 120.210036439679 3602 64 1296 968496 1018390272
74	2278747 10 27 27 0 0 1 1 1 1 1
75	2278757 28 94529 94529 120.000026999999 120.000026999999 1 1 1 1 1
76	2278785 923 32 95080 0.00000576 120.210098919678 36 64 594 3878 976094
77	2279708 900 45 95065 0.00001352 120.210093159678 35 64 594 3815 972245
78	2280608 900 45 95065 0.00001352 120.210093159678 35 64 594 3815 972245
81	2281508 893 31 95078 0 120.210093159678 36 64 594 3878 976094
85	2282401 893 30 95077 0 120.210093159678 36 28 576 3049 832973
86	2283294 900 46 95066 0.00001352 120.210093159678 35 28 576 3012 831746
88	2284194 28 94513 94513 120.000020239999 120.000020239999 1 1 1 1 1
89	2284222 19 38 38 0.00000676 0.00000676 1 1 1 1 1
93	2284241 899 43 95063 0.00001252 120.210092159678 35 64 594 3815 972245
94	2285140 923 34 95084 0.00000676 120.210099919678 36 64 594 3878 976094
95	2286063 923 34 95084 0.00000676 120.210099919678 36 64 594 3878 976094
98	2286986 857 42 95062 0.00000676 120.210081679678 35 64 594 3815 972245
102	2287843 892 41 95061 0.00000676 120.210081679678 35 28 576 3012 831746
103	2288735 959 35 95086 0.00000676 120.210099919678 36 28 576 3049 832973
105	2289694 535 60 95094 0.00002028 120.210099919678 19 7504 7504 142576 1069890304
106	2290229 899 60 95057 0.00002028 120.210081679678 33 7504 7504 247632 1858230528
107	2291128 922 60 95057 0.00002028 120.210081679678 34 7505 9134 291720 2516448882
108	2292050 430 93 95057 0.0000338 120.210081679678 17 6 1573 15734 21986362
109	2292480 882 60 95057 0.00002028 120.210081679678 33 1 1630 36583 52855665
110	2293362 945 60 95094 0.00002028 120.210099919678 34 0 1630 35020 50392278
111	2294307 941 60 95094 0.00002028 120.210099919678 34 0 1638 31085 44149155
112	2295248 815 88 95094 0.0000338 120.210099919678 33 0 1298 3916 4018024
113	2296063 827 128 95094 0.00004732 120.210099919678 32 0 0 0 0
120	2296890 1188 60 95057 0.00002028 120.210081679678 48 0 0 0 0
122	2298078 490 128 95094 0.00004732 120.210099919678 17 1072 4824 39128 113481920
124	2298568 504 128 95094 0.00004732 120.210099919678 14 1.352e-05 3.3759999e-05 0.000278239993 5.96989406128e-09
125	2299072 522 128 95094 0.00004732 120.210099919678 14 1.69e-06 1.7388499e-05 0.000156520446 2.0554681261698e-09
126	2299594 540 128 95094 0.00004732 120.210099919678 14 0.115664419731 0.65625169 4.440488169968 1.7938542415964
127	2300134 464 128 95094 0.00004732 120.210099919678 14 1 2.62500845 19.784461241609 31.929604188608
129	2300598 456 73 95034 0.00002704 120.210068199679 16 7504 7504 120064 900960256
130	2301054 938 25 95070 0 120.210093159678 34 7504 7504 255136 1914540544
131	2301992 961 25 95070 0 120.210093159678 35 7504 9142 293731 2481613479
132	2302953 405 113 94995 0.00004056 120.210049959679 15 1 1565 15291 21346803
133	2303358 911 25 95070 0 120.210093159678 34 0 1638 31085 44149155
134	2304269 915 73 95070 0.00002704 120.210093159678 33 5 1573 29519 41663317
135	2305184 925 73 95070 0.00002704 120.210093159678 33 1 1630 36583 52855665
136	2306109 720 113 95034 0.00004056 120.210068199679 28 0 1297 2615 2333087
137	2306829 823 106 95070 0.00004056 120.210093159678 32 0 0 0 0
144	2307652 1271 25 95070 0 120.210093159678 51 0 0 0 0
146	2308923 433 152 95034 0.000060799999 120.210068199679 15 1072 3752 27872 61481344
148	2309356 462 152 95034 0.000060799999 120.210068199679 13 1.352e-05 5.592e-05 0.000286879994 7.85752293808e-09
149	2309818 489 152 95034 0.000060799999 120.210068199679 13 2.529999e-06 1.7593814e-05 0.000163723264 2.3599635020555e-09
150	2310307 502 152 95034 0.000060799999 120.210068199679 13 0.132186681649 0.65625253 4.324836742955 1.7804864799019
151	2310809 440 152 95034 0.000060799999 120.210068199679 13 1 2.625012649999 18.78453577603 30.929828945014
