file 1455091 1483524552                                         
version 2
run Simple_attack-0-20170104-11:08:54-3142
attr configname Simple_attack
attr datetime 20170104-11:08:54
attr experiment Simple_attack
attr inifile omnetpp.ini
attr iterationvars ""
attr iterationvars2 $repetition=0
attr measurement ""
attr network Scenario
attr processid 3142
attr repetition 0
attr replication #0
attr resultdir results
attr runnumber 0
attr seedset 0

vector 148  Scenario.switch.tcp  tcpRcvQueueBytes  ETV
vector 135  Scenario.switch.tcp  "advertised window"  ETV
vector 134  Scenario.switch.tcp  "receive window"  ETV
vector 137  Scenario.switch.tcp  "sent ack"  ETV
vector 78  Scenario.switch.networkLayer.arp  sentReq:vector  ETV
attr title  "ARP request sent, vector"
vector 89  Scenario.switch.eth[0].encap  encapPk:vector(packetBytes)  ETV
attr interpolationmode  none
attr source  encapPk
attr title  "packets encapsulated, vector(packetBytes)"
vector 85  Scenario.switch.eth[0].mac  rxPkFromHL:vector(packetBytes)  ETV
attr interpolationmode  none
attr source  rxPkFromHL
attr title  "packet bytes from higher layer, vector(packetBytes)"
vector 80  Scenario.switch.eth[0].mac  txPk:vector(packetBytes)  ETV
attr interpolationmode  none
attr source  txPk
attr title  "packets transmitted, vector(packetBytes)"
vector 98  Scenario.controller.eth[0].mac  rxPkOk:vector(packetBytes)  ETV
attr interpolationmode  none
attr source  rxPkOk
attr title  "packets received OK, vector(packetBytes)"
vector 99  Scenario.controller.eth[0].mac  passedUpPk:vector(packetBytes)  ETV
attr interpolationmode  none
attr source  packetSentToUpper
attr title  "packets passed to higher layer, vector(packetBytes)"
vector 107  Scenario.controller.eth[0].encap  decapPk:vector(packetBytes)  ETV
attr interpolationmode  none
attr source  decapPk
attr title  "packets decapsulated, vector(packetBytes)"
vector 93  Scenario.controller.networkLayer.arp  sentReply:vector  ETV
attr title  "ARP replies sent, vector"
vector 106  Scenario.controller.eth[0].encap  encapPk:vector(packetBytes)  ETV
attr interpolationmode  none
attr source  encapPk
attr title  "packets encapsulated, vector(packetBytes)"
vector 102  Scenario.controller.eth[0].mac  rxPkFromHL:vector(packetBytes)  ETV
attr interpolationmode  none
attr source  rxPkFromHL
attr title  "packet bytes from higher layer, vector(packetBytes)"
vector 97  Scenario.controller.eth[0].mac  txPk:vector(packetBytes)  ETV
attr interpolationmode  none
attr source  txPk
attr title  "packets transmitted, vector(packetBytes)"
vector 81  Scenario.switch.eth[0].mac  rxPkOk:vector(packetBytes)  ETV
attr interpolationmode  none
attr source  rxPkOk
attr title  "packets received OK, vector(packetBytes)"
vector 82  Scenario.switch.eth[0].mac  passedUpPk:vector(packetBytes)  ETV
attr interpolationmode  none
attr source  packetSentToUpper
attr title  "packets passed to higher layer, vector(packetBytes)"
vector 90  Scenario.switch.eth[0].encap  decapPk:vector(packetBytes)  ETV
attr interpolationmode  none
attr source  decapPk
attr title  "packets decapsulated, vector(packetBytes)"
vector 114  Scenario.controller.tcp  "rcvd seq"  ETV
vector 115  Scenario.controller.tcp  "rcvd ack"  ETV
vector 111  Scenario.controller.tcp  "advertised window"  ETV
vector 109  Scenario.controller.tcp  "send window"  ETV
vector 124  Scenario.controller.tcp  tcpRcvQueueBytes  ETV
vector 110  Scenario.controller.tcp  "receive window"  ETV
vector 113  Scenario.controller.tcp  "sent ack"  ETV
vector 138  Scenario.switch.tcp  "rcvd seq"  ETV
vector 139  Scenario.switch.tcp  "rcvd ack"  ETV
vector 133  Scenario.switch.tcp  "send window"  ETV
vector 116  Scenario.controller.tcp  "unacked bytes"  ETV
vector 112  Scenario.controller.tcp  "sent seq"  ETV
vector 141  Scenario.switch.tcp  "rcvd dupAcks"  ETV
vector 136  Scenario.switch.tcp  "sent seq"  ETV
vector 140  Scenario.switch.tcp  "unacked bytes"  ETV
vector 128  Scenario.controller.tcp  "measured RTT"  ETV
vector 129  Scenario.controller.tcp  "smoothed RTT"  ETV
vector 130  Scenario.controller.tcp  RTTVAR  ETV
vector 131  Scenario.controller.tcp  RTO  ETV
vector 126  Scenario.controller.tcp  cwnd  ETV
vector 117  Scenario.controller.tcp  "rcvd dupAcks"  ETV
vector 152  Scenario.switch.tcp  "measured RTT"  ETV
vector 153  Scenario.switch.tcp  "smoothed RTT"  ETV
vector 154  Scenario.switch.tcp  RTTVAR  ETV
vector 155  Scenario.switch.tcp  RTO  ETV
vector 150  Scenario.switch.tcp  cwnd  ETV
vector 1  Scenario.client.udpApp[0]  sentPk:vector(packetBytes)  ETV
attr interpolationmode  none
attr source  sentPk
attr title  "packets sent, vector(packetBytes)"
vector 3  Scenario.client.udp  sentPk:vector(packetBytes)  ETV
attr interpolationmode  none
attr source  sentPk
attr title  "packets sent, vector(packetBytes)"
vector 4  Scenario.client.udp  sentPk:vector(count)  ETV
attr interpolationmode  none
attr source  sentPk
attr title  "packets sent, vector(count)"
vector 11  Scenario.client.networkLayer.arp  sentReq:vector  ETV
attr title  "ARP request sent, vector"
vector 25  Scenario.client.eth[0].encap  encapPk:vector(packetBytes)  ETV
attr interpolationmode  none
attr source  encapPk
attr title  "packets encapsulated, vector(packetBytes)"
vector 21  Scenario.client.eth[0].mac  rxPkFromHL:vector(packetBytes)  ETV
attr interpolationmode  none
attr source  rxPkFromHL
attr title  "packet bytes from higher layer, vector(packetBytes)"
vector 16  Scenario.client.eth[0].mac  txPk:vector(packetBytes)  ETV
attr interpolationmode  none
attr source  txPk
attr title  "packets transmitted, vector(packetBytes)"
vector 57  Scenario.switch.etherMAC[0]  rxPkOk:vector(packetBytes)  ETV
attr interpolationmode  none
attr source  rxPkOk
attr title  "packets received OK, vector(packetBytes)"
vector 58  Scenario.switch.etherMAC[0]  passedUpPk:vector(packetBytes)  ETV
attr interpolationmode  none
attr source  packetSentToUpper
attr title  "packets passed to higher layer, vector(packetBytes)"
vector 72  Scenario.switch.etherMAC[1]  rxPkFromHL:vector(packetBytes)  ETV
attr interpolationmode  none
attr source  rxPkFromHL
attr title  "packet bytes from higher layer, vector(packetBytes)"
vector 67  Scenario.switch.etherMAC[1]  txPk:vector(packetBytes)  ETV
attr interpolationmode  none
attr source  txPk
attr title  "packets transmitted, vector(packetBytes)"
vector 45  Scenario.server.eth[0].mac  rxPkOk:vector(packetBytes)  ETV
attr interpolationmode  none
attr source  rxPkOk
attr title  "packets received OK, vector(packetBytes)"
vector 46  Scenario.server.eth[0].mac  passedUpPk:vector(packetBytes)  ETV
attr interpolationmode  none
attr source  packetSentToUpper
attr title  "packets passed to higher layer, vector(packetBytes)"
vector 54  Scenario.server.eth[0].encap  decapPk:vector(packetBytes)  ETV
attr interpolationmode  none
attr source  decapPk
attr title  "packets decapsulated, vector(packetBytes)"
vector 40  Scenario.server.networkLayer.arp  sentReply:vector  ETV
attr title  "ARP replies sent, vector"
vector 53  Scenario.server.eth[0].encap  encapPk:vector(packetBytes)  ETV
attr interpolationmode  none
attr source  encapPk
attr title  "packets encapsulated, vector(packetBytes)"
vector 49  Scenario.server.eth[0].mac  rxPkFromHL:vector(packetBytes)  ETV
attr interpolationmode  none
attr source  rxPkFromHL
attr title  "packet bytes from higher layer, vector(packetBytes)"
vector 44  Scenario.server.eth[0].mac  txPk:vector(packetBytes)  ETV
attr interpolationmode  none
attr source  txPk
attr title  "packets transmitted, vector(packetBytes)"
vector 68  Scenario.switch.etherMAC[1]  rxPkOk:vector(packetBytes)  ETV
attr interpolationmode  none
attr source  rxPkOk
attr title  "packets received OK, vector(packetBytes)"
vector 69  Scenario.switch.etherMAC[1]  passedUpPk:vector(packetBytes)  ETV
attr interpolationmode  none
attr source  packetSentToUpper
attr title  "packets passed to higher layer, vector(packetBytes)"
vector 61  Scenario.switch.etherMAC[0]  rxPkFromHL:vector(packetBytes)  ETV
attr interpolationmode  none
attr source  rxPkFromHL
attr title  "packet bytes from higher layer, vector(packetBytes)"
vector 56  Scenario.switch.etherMAC[0]  txPk:vector(packetBytes)  ETV
attr interpolationmode  none
attr source  txPk
attr title  "packets transmitted, vector(packetBytes)"
vector 17  Scenario.client.eth[0].mac  rxPkOk:vector(packetBytes)  ETV
attr interpolationmode  none
attr source  rxPkOk
attr title  "packets received OK, vector(packetBytes)"
vector 18  Scenario.client.eth[0].mac  passedUpPk:vector(packetBytes)  ETV
attr interpolationmode  none
attr source  packetSentToUpper
attr title  "packets passed to higher layer, vector(packetBytes)"
vector 26  Scenario.client.eth[0].encap  decapPk:vector(packetBytes)  ETV
attr interpolationmode  none
attr source  decapPk
attr title  "packets decapsulated, vector(packetBytes)"
vector 33  Scenario.server.udp  rcvdPk:vector(packetBytes)  ETV
attr interpolationmode  none
attr source  rcvdPk
attr title  "packets received, vector(packetBytes)"
vector 38  Scenario.server.udp  rcvdPkLifetime:vector  ETV
attr interpolationmode  none
attr source  messageAge(rcvdPk)
attr title  "received packet lifetime, vector"
attr unit  s
vector 37  Scenario.server.udp  delay:vector  ETV
attr interpolationmode  none
attr source  delay
attr title  "delay, vector"
vector 34  Scenario.server.udp  passedUpPk:vector(count)  ETV
attr interpolationmode  none
attr title  "packets passed up, vector(count)"
vector 28  Scenario.server.udpApp[0]  rcvdPk:vector(packetBytes)  ETV
attr interpolationmode  none
attr source  rcvdPk
attr title  "packets received, vector(packetBytes)"
vector 29  Scenario.server.udpApp[0]  rcvdPk:vector(count)  ETV
attr interpolationmode  none
attr source  rcvdPk
attr title  "packets received, vector(count)"
vector 30  Scenario.server.udpApp[0]  rcvdAppPkt:vector  ETV
attr interpolationmode  none
attr source  rcvdAppPkt
attr title  "packets received during sec, vector"
1	9882 9779 153 86279 0.2 114.8 574 1250 1250 717500 896875000
3	19661 58220 157 86477 0.2 114.86 3061 1258 1258 3850738 4844228404
4	77881 57113 157 86477 0.2 114.86 3061 1 3061 4686391 9564924031
11	134994 13 159 159 0.2 0.2 1 1 1 1 1
16	135007 81248 165 86456 0.20000576 114.85010432 3061 64 1296 3965824 5139629056
17	216255 25 343 343 0.200099919998 0.200099919998 1 64 64 64 4096
18	216280 25 343 343 0.200099919998 0.200099919998 1 64 64 64 4096
21	216305 61286 163 86454 0.2 114.85 3061 64 1296 3965824 5139629056
25	277591 61286 162 86453 0.2 114.85 3061 28 1278 3910708 4997849824
26	338877 25 345 345 0.200099919998 0.200099919998 1 28 28 28 784
28	338902 81227 571 86474 0.200569039992 114.85021064 3060 1250 1250 3825000 4781250000
29	420129 80120 571 86474 0.200569039992 114.85021064 3060 1 3060 4683330 9555554310
30	500249 2607 683 83971 1.00021064 114.00021064 114 5 105 2970 266850
33	502856 81227 569 86472 0.200569039992 114.85021064 3060 1258 1258 3849480 4842645840
34	584083 80120 569 86472 0.200569039992 114.85021064 3060 1 3060 4683330 9555554310
37	664203 100091 569 86472 0.200569039992 114.85021064 3060 0.00021064 0.000569039992 0.65807679986702 0.00014297874819992
38	764294 100091 569 86472 0.200569039992 114.85021064 3060 0.00021064 0.000569039992 0.65807679986702 0.00014297874819992
40	864385 24 239 239 0.200043199999 0.200043199999 1 1 1 1 1
44	864409 25 247 247 0.200048959999 0.200048959999 1 64 64 64 4096
45	864434 81252 231 86467 0.200043199999 114.85021064 3061 64 1296 3965824 5139629056
46	945686 81252 231 86467 0.200043199999 114.85021064 3061 64 1296 3965824 5139629056
49	1026938 25 245 245 0.200043199999 0.200043199999 1 64 64 64 4096
53	1026963 25 244 244 0.200043199999 0.200043199999 1 28 28 28 784
54	1026988 81252 233 86468 0.200043199999 114.85021064 3061 28 1278 3910708 4997849824
56	1108240 25 339 339 0.200098919998 0.200098919998 1 64 64 64 4096
57	1108265 81248 167 86458 0.20000676 114.85010532 3061 64 1296 3965824 5139629056
58	1189513 81248 167 86458 0.20000676 114.85010532 3061 64 1296 3965824 5139629056
61	1270761 25 336 336 0.200093159998 0.200093159998 1 64 64 64 4096
67	1270786 81252 227 86465 0.200042199999 114.85020964 3061 64 1296 3965824 5139629056
68	1352038 25 249 249 0.200049959999 0.200049959999 1 64 64 64 4096
69	1352063 25 249 249 0.200049959999 0.200049959999 1 64 64 64 4096
72	1352088 81252 224 86463 0.200036439999 114.85010532 3061 64 1296 3965824 5139629056
78	1433340 10 27 27 0 0 1 1 1 1 1
80	1433350 618 32 13375 0.00000576 90.000052999998 25 64 594 2997 897939
81	1433968 597 45 13362 0.00001352 90.000047239998 24 64 594 2933 893843
82	1434565 597 45 13362 0.00001352 90.000047239998 24 64 594 2933 893843
85	1435162 598 31 13374 0 90.000047239998 25 64 594 2997 897939
89	1435760 598 30 13373 0 90.000047239998 25 28 576 2425 787833
90	1436358 597 46 13363 0.00001352 90.000047239998 24 28 576 2385 786233
93	1436955 19 38 38 0.00000676 0.00000676 1 1 1 1 1
97	1436974 596 43 13360 0.00001252 90.000046239998 24 64 594 2933 893843
98	1437570 618 34 13377 0.00000676 90.000053999998 25 64 594 2997 897939
99	1438188 618 34 13377 0.00000676 90.000053999998 25 64 594 2997 897939
102	1438806 599 42 13351 0.00000676 90.000033759999 24 64 594 2933 893843
106	1439405 599 41 13350 0.00000676 90.000033759999 24 28 576 2385 786233
107	1440004 643 35 13378 0.00000676 90.000053999998 25 28 576 2425 787833
109	1440647 349 60 13382 0.00002028 90.000053999998 13 7504 7504 97552 732030208
110	1440996 619 60 13345 0.00002028 90.000033759999 23 7504 7504 172592 1295130368
111	1441615 642 60 13345 0.00002028 90.000033759999 24 7505 8938 201103 1695282893
112	1442257 267 93 13345 0.0000338 90.000033759999 11 6 1438 6632 8166018
113	1442524 602 60 13345 0.00002028 90.000033759999 23 1 1434 21006 28569452
114	1443126 642 60 13382 0.00002028 90.000053999998 24 0 1434 19573 26513097
115	1443768 638 60 13382 0.00002028 90.000053999998 24 0 1439 15758 20629748
116	1444406 499 88 13382 0.0000338 90.000053999998 21 0 1298 3717 4005215
117	1444905 554 128 13382 0.00004732 90.000053999998 22 0 0 0 0
124	1445459 833 60 13345 0.00002028 90.000033759999 34 0 0 0 0
126	1446292 304 128 13382 0.00004732 90.000053999998 11 1072 4824 27336 86476096
128	1446596 276 128 13382 0.00004732 90.000053999998 8 1.352e-05 2.4959999e-05 0.000144479996 2.73304302864e-09
129	1446872 282 128 13382 0.00004732 90.000053999998 8 1.69e-06 1.1695607e-05 6.2610717e-05 5.6957236412514e-10
130	1447154 294 128 13382 0.00004732 90.000053999998 8 0.257713520669 0.65625169 3.446098920223 1.6205880235396
131	1447448 296 128 13382 0.00004732 90.000053999998 8 1.030865778283 2.62500845 13.784458291609 25.929598106491
133	1447744 337 73 13359 0.00002704 90.000040519999 12 7504 7504 90048 675720192
134	1448081 645 25 13367 0 90.000047239998 24 7504 7504 180096 1351440384
135	1448726 668 25 13367 0 90.000047239998 25 7504 8943 203364 1664966296
136	1449394 294 113 13323 0.00004056 90.000026999999 11 1 1433 9229 12156573
137	1449688 618 25 13367 0 90.000047239998 24 0 1439 15758 20629748
138	1450306 614 73 13367 0.00002704 90.000047239998 23 5 1438 14324 18559052
139	1450920 624 73 13367 0.00002704 90.000047239998 23 1 1434 21006 28569452
140	1451544 511 113 13359 0.00004056 90.000040519999 20 0 1297 2419 2320411
141	1452055 552 106 13367 0.00004056 90.000047239998 22 0 0 0 0
148	1452607 844 25 13367 0 90.000047239998 35 0 0 0 0
150	1453451 314 152 13359 0.000060799999 90.000040519999 11 1072 3752 20904 48553024
152	1453765 315 152 13359 0.000060799999 90.000040519999 9 1.352e-05 5.592e-05 0.000193679997 5.56978547856e-09
153	1454080 335 152 13359 0.000060799999 90.000040519999 9 2.529999e-06 1.4281172e-05 9.4377792e-05 1.1647750581227e-09
154	1454415 344 152 13359 0.000060799999 90.000040519999 9 0.225500381896 0.65625253 3.671612337339 1.6714484254139
155	1454759 332 152 13359 0.000060799999 90.000040519999 9 1 2.625012649999 14.784528013538 26.929809114221
