version 2
run Simple_attack-0-20170104-11:08:54-3142
attr configname Simple_attack
attr datetime 20170104-11:08:54
attr experiment Simple_attack
attr inifile omnetpp.ini
attr iterationvars ""
attr iterationvars2 $repetition=0
attr measurement ""
attr network Scenario
attr processid 3142
attr repetition 0
attr replication #0
attr resultdir results
attr runnumber 0
attr seedset 0

vector 148  Scenario.switch.tcp  tcpRcvQueueBytes  ETV
vector 135  Scenario.switch.tcp  "advertised window"  ETV
vector 134  Scenario.switch.tcp  "receive window"  ETV
vector 137  Scenario.switch.tcp  "sent ack"  ETV
vector 78  Scenario.switch.networkLayer.arp  sentReq:vector  ETV
attr title  "ARP request sent, vector"
vector 89  Scenario.switch.eth[0].encap  encapPk:vector(packetBytes)  ETV
attr interpolationmode  none
attr source  encapPk
attr title  "packets encapsulated, vector(packetBytes)"
vector 85  Scenario.switch.eth[0].mac  rxPkFromHL:vector(packetBytes)  ETV
attr interpolationmode  none
attr source  rxPkFromHL
attr title  "packet bytes from higher layer, vector(packetBytes)"
vector 80  Scenario.switch.eth[0].mac  txPk:vector(packetBytes)  ETV
attr interpolationmode  none
attr source  txPk
attr title  "packets transmitted, vector(packetBytes)"
vector 98  Scenario.controller.eth[0].mac  rxPkOk:vector(packetBytes)  ETV
attr interpolationmode  none
attr source  rxPkOk
attr title  "packets received OK, vector(packetBytes)"
vector 99  Scenario.controller.eth[0].mac  passedUpPk:vector(packetBytes)  ETV
attr interpolationmode  none
attr source  packetSentToUpper
attr title  "packets passed to higher layer, vector(packetBytes)"
vector 107  Scenario.controller.eth[0].encap  decapPk:vector(packetBytes)  ETV
attr interpolationmode  none
attr source  decapPk
attr title  "packets decapsulated, vector(packetBytes)"
vector 93  Scenario.controller.networkLayer.arp  sentReply:vector  ETV
attr title  "ARP replies sent, vector"
vector 106  Scenario.controller.eth[0].encap  encapPk:vector(packetBytes)  ETV
attr interpolationmode  none
attr source  encapPk
attr title  "packets encapsulated, vector(packetBytes)"
vector 102  Scenario.controller.eth[0].mac  rxPkFromHL:vector(packetBytes)  ETV
attr interpolationmode  none
attr source  rxPkFromHL
attr title  "packet bytes from higher layer, vector(packetBytes)"
vector 97  Scenario.controller.eth[0].mac  txPk:vector(packetBytes)  ETV
attr interpolationmode  none
attr source  txPk
attr title  "packets transmitted, vector(packetBytes)"
vector 81  Scenario.switch.eth[0].mac  rxPkOk:vector(packetBytes)  ETV
attr interpolationmode  none
attr source  rxPkOk
attr title  "packets received OK, vector(packetBytes)"
vector 82  Scenario.switch.eth[0].mac  passedUpPk:vector(packetBytes)  ETV
attr interpolationmode  none
attr source  packetSentToUpper
attr title  "packets passed to higher layer, vector(packetBytes)"
vector 90  Scenario.switch.eth[0].encap  decapPk:vector(packetBytes)  ETV
attr interpolationmode  none
attr source  decapPk
attr title  "packets decapsulated, vector(packetBytes)"
vector 114  Scenario.controller.tcp  "rcvd seq"  ETV
vector 115  Scenario.controller.tcp  "rcvd ack"  ETV
vector 111  Scenario.controller.tcp  "advertised window"  ETV
vector 109  Scenario.controller.tcp  "send window"  ETV
vector 124  Scenario.controller.tcp  tcpRcvQueueBytes  ETV
vector 110  Scenario.controller.tcp  "receive window"  ETV
vector 113  Scenario.controller.tcp  "sent ack"  ETV
vector 138  Scenario.switch.tcp  "rcvd seq"  ETV
vector 139  Scenario.switch.tcp  "rcvd ack"  ETV
vector 133  Scenario.switch.tcp  "send window"  ETV
vector 116  Scenario.controller.tcp  "unacked bytes"  ETV
vector 112  Scenario.controller.tcp  "sent seq"  ETV
vector 141  Scenario.switch.tcp  "rcvd dupAcks"  ETV
vector 136  Scenario.switch.tcp  "sent seq"  ETV
vector 140  Scenario.switch.tcp  "unacked bytes"  ETV
vector 128  Scenario.controller.tcp  "measured RTT"  ETV
vector 129  Scenario.controller.tcp  "smoothed RTT"  ETV
vector 130  Scenario.controller.tcp  RTTVAR  ETV
vector 131  Scenario.controller.tcp  RTO  ETV
vector 126  Scenario.controller.tcp  cwnd  ETV
vector 117  Scenario.controller.tcp  "rcvd dupAcks"  ETV
vector 152  Scenario.switch.tcp  "measured RTT"  ETV
vector 153  Scenario.switch.tcp  "smoothed RTT"  ETV
vector 154  Scenario.switch.tcp  RTTVAR  ETV
vector 155  Scenario.switch.tcp  RTO  ETV
vector 150  Scenario.switch.tcp  cwnd  ETV
vector 1  Scenario.client.udpApp[0]  sentPk:vector(packetBytes)  ETV
attr interpolationmode  none
attr source  sentPk
attr title  "packets sent, vector(packetBytes)"
vector 3  Scenario.client.udp  sentPk:vector(packetBytes)  ETV
attr interpolationmode  none
attr source  sentPk
attr title  "packets sent, vector(packetBytes)"
vector 4  Scenario.client.udp  sentPk:vector(count)  ETV
attr interpolationmode  none
attr source  sentPk
attr title  "packets sent, vector(count)"
vector 11  Scenario.client.networkLayer.arp  sentReq:vector  ETV
attr title  "ARP request sent, vector"
vector 25  Scenario.client.eth[0].encap  encapPk:vector(packetBytes)  ETV
attr interpolationmode  none
attr source  encapPk
attr title  "packets encapsulated, vector(packetBytes)"
vector 21  Scenario.client.eth[0].mac  rxPkFromHL:vector(packetBytes)  ETV
attr interpolationmode  none
attr source  rxPkFromHL
attr title  "packet bytes from higher layer, vector(packetBytes)"
vector 16  Scenario.client.eth[0].mac  txPk:vector(packetBytes)  ETV
attr interpolationmode  none
attr source  txPk
attr title  "packets transmitted, vector(packetBytes)"
vector 57  Scenario.switch.etherMAC[0]  rxPkOk:vector(packetBytes)  ETV
attr interpolationmode  none
attr source  rxPkOk
attr title  "packets received OK, vector(packetBytes)"
vector 58  Scenario.switch.etherMAC[0]  passedUpPk:vector(packetBytes)  ETV
attr interpolationmode  none
attr source  packetSentToUpper
attr title  "packets passed to higher layer, vector(packetBytes)"
vector 72  Scenario.switch.etherMAC[1]  rxPkFromHL:vector(packetBytes)  ETV
attr interpolationmode  none
attr source  rxPkFromHL
attr title  "packet bytes from higher layer, vector(packetBytes)"
vector 67  Scenario.switch.etherMAC[1]  txPk:vector(packetBytes)  ETV
attr interpolationmode  none
attr source  txPk
attr title  "packets transmitted, vector(packetBytes)"
vector 45  Scenario.server.eth[0].mac  rxPkOk:vector(packetBytes)  ETV
attr interpolationmode  none
attr source  rxPkOk
attr title  "packets received OK, vector(packetBytes)"
vector 46  Scenario.server.eth[0].mac  passedUpPk:vector(packetBytes)  ETV
attr interpolationmode  none
attr source  packetSentToUpper
attr title  "packets passed to higher layer, vector(packetBytes)"
vector 54  Scenario.server.eth[0].encap  decapPk:vector(packetBytes)  ETV
attr interpolationmode  none
attr source  decapPk
attr title  "packets decapsulated, vector(packetBytes)"
vector 40  Scenario.server.networkLayer.arp  sentReply:vector  ETV
attr title  "ARP replies sent, vector"
vector 53  Scenario.server.eth[0].encap  encapPk:vector(packetBytes)  ETV
attr interpolationmode  none
attr source  encapPk
attr title  "packets encapsulated, vector(packetBytes)"
vector 49  Scenario.server.eth[0].mac  rxPkFromHL:vector(packetBytes)  ETV
attr interpolationmode  none
attr source  rxPkFromHL
attr title  "packet bytes from higher layer, vector(packetBytes)"
vector 44  Scenario.server.eth[0].mac  txPk:vector(packetBytes)  ETV
attr interpolationmode  none
attr source  txPk
attr title  "packets transmitted, vector(packetBytes)"
vector 68  Scenario.switch.etherMAC[1]  rxPkOk:vector(packetBytes)  ETV
attr interpolationmode  none
attr source  rxPkOk
attr title  "packets received OK, vector(packetBytes)"
vector 69  Scenario.switch.etherMAC[1]  passedUpPk:vector(packetBytes)  ETV
attr interpolationmode  none
attr source  packetSentToUpper
attr title  "packets passed to higher layer, vector(packetBytes)"
vector 61  Scenario.switch.etherMAC[0]  rxPkFromHL:vector(packetBytes)  ETV
attr interpolationmode  none
attr source  rxPkFromHL
attr title  "packet bytes from higher layer, vector(packetBytes)"
vector 56  Scenario.switch.etherMAC[0]  txPk:vector(packetBytes)  ETV
attr interpolationmode  none
attr source  txPk
attr title  "packets transmitted, vector(packetBytes)"
vector 17  Scenario.client.eth[0].mac  rxPkOk:vector(packetBytes)  ETV
attr interpolationmode  none
attr source  rxPkOk
attr title  "packets received OK, vector(packetBytes)"
vector 18  Scenario.client.eth[0].mac  passedUpPk:vector(packetBytes)  ETV
attr interpolationmode  none
attr source  packetSentToUpper
attr title  "packets passed to higher layer, vector(packetBytes)"
vector 26  Scenario.client.eth[0].encap  decapPk:vector(packetBytes)  ETV
attr interpolationmode  none
attr source  decapPk
attr title  "packets decapsulated, vector(packetBytes)"
vector 33  Scenario.server.udp  rcvdPk:vector(packetBytes)  ETV
attr interpolationmode  none
attr source  rcvdPk
attr title  "packets received, vector(packetBytes)"
vector 38  Scenario.server.udp  rcvdPkLifetime:vector  ETV
attr interpolationmode  none
attr source  messageAge(rcvdPk)
attr title  "received packet lifetime, vector"
attr unit  s
vector 37  Scenario.server.udp  delay:vector  ETV
attr interpolationmode  none
attr source  delay
attr title  "delay, vector"
vector 34  Scenario.server.udp  passedUpPk:vector(count)  ETV
attr interpolationmode  none
attr title  "packets passed up, vector(count)"
vector 28  Scenario.server.udpApp[0]  rcvdPk:vector(packetBytes)  ETV
attr interpolationmode  none
attr source  rcvdPk
attr title  "packets received, vector(packetBytes)"
vector 29  Scenario.server.udpApp[0]  rcvdPk:vector(count)  ETV
attr interpolationmode  none
attr source  rcvdPk
attr title  "packets received, vector(count)"
vector 30  Scenario.server.udpApp[0]  rcvdAppPkt:vector  ETV
attr interpolationmode  none
attr source  rcvdAppPkt
attr title  "packets received during sec, vector"
1	153	0.2	1250
1	572	0.4	1250
1	600	0.6	1250
1	628	0.8	1250
1	656	1	1250
1	684	1.2	1250
1	712	1.4	1250
1	740	1.6	1250
1	768	1.8	1250
1	796	2	1250
1	824	2.2	1250
1	852	2.4	1250
1	880	2.6	1250
1	908	2.8	1250
1	936	3	1250
1	964	3.2	1250
1	992	3.4	1250
1	1020	3.6	1250
1	1048	3.8	1250
1	1076	4	1250
1	1104	4.2	1250
1	1132	4.4	1250
1	1160	4.6	1250
1	1188	4.8	1250
1	1216	5	1250
1	1244	5.2	1250
1	1272	5.4	1250
1	1300	5.6	1250
1	1328	5.8	1250
1	1356	6	1250
1	1384	6.2	1250
1	1412	6.4	1250
1	1440	6.6	1250
1	1468	6.8	1250
1	1496	7	1250
1	1524	7.2	1250
1	1552	7.4	1250
1	1580	7.6	1250
1	1608	7.8	1250
1	1636	8	1250
1	1664	8.2	1250
1	1692	8.4	1250
1	1720	8.6	1250
1	1748	8.8	1250
1	1776	9	1250
1	1804	9.2	1250
1	1832	9.4	1250
1	1860	9.6	1250
1	1888	9.8	1250
1	1916	10	1250
1	1944	10.2	1250
1	1972	10.4	1250
1	2000	10.6	1250
1	2028	10.8	1250
1	2056	11	1250
1	2084	11.2	1250
1	2112	11.4	1250
1	2140	11.6	1250
1	2168	11.8	1250
1	2196	12	1250
1	2224	12.2	1250
1	2252	12.4	1250
1	2280	12.6	1250
1	2308	12.8	1250
1	2336	13	1250
1	2364	13.2	1250
1	2392	13.4	1250
1	2420	13.6	1250
1	2448	13.8	1250
1	2476	14	1250
1	2504	14.2	1250
1	2532	14.4	1250
1	2560	14.6	1250
1	2588	14.8	1250
1	2616	15	1250
1	2644	15.2	1250
1	2672	15.4	1250
1	2700	15.6	1250
1	2728	15.8	1250
1	2756	16	1250
1	2784	16.2	1250
1	2812	16.4	1250
1	2840	16.6	1250
1	2868	16.8	1250
1	2896	17	1250
1	2924	17.2	1250
1	2952	17.4	1250
1	2980	17.6	1250
1	3008	17.8	1250
1	3036	18	1250
1	3064	18.2	1250
1	3092	18.4	1250
1	3120	18.6	1250
1	3148	18.8	1250
1	3176	19	1250
1	3204	19.2	1250
1	3232	19.4	1250
1	3260	19.6	1250
1	3288	19.8	1250
1	3316	20	1250
1	3344	20.2	1250
1	3372	20.4	1250
1	3400	20.6	1250
1	3428	20.8	1250
1	3456	21	1250
1	3484	21.2	1250
1	3512	21.4	1250
1	3540	21.6	1250
1	3568	21.8	1250
1	3596	22	1250
1	3624	22.2	1250
1	3652	22.4	1250
1	3680	22.6	1250
1	3708	22.8	1250
1	3736	23	1250
1	3764	23.2	1250
1	3792	23.4	1250
1	3820	23.6	1250
1	3848	23.8	1250
1	3876	24	1250
1	3904	24.2	1250
1	3932	24.4	1250
1	3960	24.6	1250
1	3988	24.8	1250
1	4016	25	1250
1	4044	25.2	1250
1	4072	25.4	1250
1	4100	25.6	1250
1	4128	25.8	1250
1	4156	26	1250
1	4184	26.2	1250
1	4212	26.4	1250
1	4240	26.6	1250
1	4268	26.8	1250
1	4296	27	1250
1	4324	27.2	1250
1	4352	27.4	1250
1	4380	27.6	1250
1	4408	27.8	1250
1	4436	28	1250
1	4464	28.2	1250
1	4492	28.4	1250
1	4520	28.6	1250
1	4548	28.8	1250
1	4576	29	1250
1	4604	29.2	1250
1	4632	29.4	1250
1	4660	29.6	1250
1	4688	29.8	1250
1	4717	30	1250
1	4806	30.2	1250
1	4834	30.4	1250
1	4862	30.6	1250
1	4890	30.8	1250
1	4919	31	1250
1	4947	31.2	1250
1	4975	31.4	1250
1	5003	31.6	1250
1	5031	31.8	1250
1	5059	32	1250
1	5087	32.2	1250
1	5115	32.4	1250
1	5143	32.6	1250
1	5171	32.8	1250
1	5199	33	1250
1	5227	33.2	1250
1	5255	33.4	1250
1	5283	33.6	1250
1	5311	33.8	1250
1	5339	34	1250
1	5367	34.2	1250
1	5395	34.4	1250
1	5423	34.6	1250
1	5451	34.8	1250
1	5479	35	1250
1	5507	35.2	1250
1	5535	35.4	1250
1	5563	35.6	1250
1	5591	35.8	1250
1	5619	36	1250
1	5647	36.2	1250
1	5675	36.4	1250
1	5703	36.6	1250
1	5731	36.8	1250
1	5759	37	1250
1	5787	37.2	1250
1	5815	37.4	1250
1	5843	37.6	1250
1	5871	37.8	1250
1	5899	38	1250
1	5927	38.2	1250
1	5955	38.4	1250
1	5983	38.6	1250
1	6011	38.8	1250
1	6039	39	1250
1	6067	39.2	1250
1	6095	39.4	1250
1	6123	39.6	1250
1	6151	39.8	1250
1	6179	40	1250
1	6207	40.2	1250
1	6235	40.4	1250
1	6263	40.6	1250
1	6291	40.8	1250
1	6319	41	1250
1	6347	41.2	1250
1	6375	41.4	1250
1	6403	41.6	1250
1	6431	41.8	1250
1	6459	42	1250
1	6487	42.2	1250
1	6515	42.4	1250
1	6543	42.6	1250
1	6571	42.8	1250
1	6599	43	1250
1	6627	43.2	1250
1	6655	43.4	1250
1	6683	43.6	1250
1	6711	43.8	1250
1	6739	44	1250
1	6767	44.2	1250
1	6795	44.4	1250
1	6823	44.6	1250
1	6851	44.8	1250
1	6879	45	1250
1	6907	45.2	1250
1	6935	45.4	1250
1	6963	45.6	1250
1	6991	45.8	1250
1	7019	46	1250
1	7047	46.2	1250
1	7075	46.4	1250
1	7103	46.6	1250
1	7131	46.8	1250
1	7159	47	1250
1	7187	47.2	1250
1	7215	47.4	1250
1	7243	47.6	1250
1	7271	47.8	1250
1	7299	48	1250
1	7327	48.2	1250
1	7355	48.4	1250
1	7383	48.6	1250
1	7411	48.8	1250
1	7439	49	1250
1	7467	49.2	1250
1	7495	49.4	1250
1	7523	49.6	1250
1	7551	49.8	1250
1	7579	50	1250
1	7607	50.2	1250
1	7635	50.4	1250
1	7663	50.6	1250
1	7691	50.8	1250
1	7719	51	1250
1	7747	51.2	1250
1	7775	51.4	1250
1	7803	51.6	1250
1	7831	51.8	1250
1	7859	52	1250
1	7887	52.2	1250
1	7915	52.4	1250
1	7943	52.6	1250
1	7971	52.8	1250
1	7999	53	1250
1	8027	53.2	1250
1	8055	53.4	1250
1	8083	53.6	1250
1	8111	53.8	1250
1	8139	54	1250
1	8167	54.2	1250
1	8195	54.4	1250
1	8223	54.6	1250
1	8251	54.8	1250
1	8279	55	1250
1	8307	55.2	1250
1	8335	55.4	1250
1	8363	55.6	1250
1	8391	55.8	1250
1	8419	56	1250
1	8447	56.2	1250
1	8475	56.4	1250
1	8503	56.6	1250
1	8531	56.8	1250
1	8559	57	1250
1	8587	57.2	1250
1	8615	57.4	1250
1	8643	57.6	1250
1	8671	57.8	1250
1	8699	58	1250
1	8727	58.2	1250
1	8755	58.4	1250
1	8783	58.6	1250
1	8811	58.8	1250
1	8839	59	1250
1	8867	59.2	1250
1	8895	59.4	1250
1	8923	59.6	1250
1	8951	59.8	1250
1	8979	60	1250
1	9007	60.2	1250
1	9099	60.4	1250
1	9127	60.6	1250
1	9155	60.8	1250
1	9183	61	1250
1	9211	61.2	1250
1	9239	61.4	1250
1	9267	61.6	1250
1	9295	61.8	1250
1	9323	62	1250
1	9351	62.2	1250
1	9379	62.4	1250
1	9407	62.6	1250
1	9435	62.8	1250
1	9463	63	1250
1	9491	63.2	1250
1	9519	63.4	1250
1	9547	63.6	1250
1	9575	63.8	1250
1	9603	64	1250
1	9631	64.2	1250
1	9659	64.4	1250
1	9687	64.6	1250
1	9715	64.8	1250
1	9743	65	1250
1	9771	65.2	1250
1	9799	65.4	1250
1	9827	65.6	1250
1	9855	65.8	1250
1	9883	66	1250
1	9911	66.2	1250
1	9939	66.4	1250
1	9967	66.6	1250
1	9995	66.8	1250
1	10023	67	1250
1	10051	67.2	1250
1	10079	67.4	1250
1	10107	67.6	1250
1	10135	67.8	1250
1	10163	68	1250
1	10191	68.2	1250
1	10219	68.4	1250
1	10247	68.6	1250
1	10275	68.8	1250
1	10303	69	1250
1	10331	69.2	1250
1	10359	69.4	1250
1	10387	69.6	1250
1	10415	69.8	1250
1	10443	70	1250
1	10471	70.2	1250
1	10499	70.4	1250
1	10527	70.6	1250
1	10555	70.8	1250
1	10583	71	1250
1	10611	71.2	1250
1	10639	71.4	1250
1	10667	71.6	1250
1	10695	71.8	1250
1	10723	72	1250
1	10751	72.2	1250
1	10779	72.4	1250
1	10807	72.6	1250
1	10835	72.8	1250
1	10863	73	1250
1	10891	73.2	1250
1	10919	73.4	1250
1	10947	73.6	1250
1	10975	73.8	1250
1	11003	74	1250
1	11031	74.2	1250
1	11059	74.4	1250
1	11087	74.6	1250
1	11115	74.8	1250
1	11143	75	1250
1	11171	75.2	1250
1	11199	75.4	1250
1	11227	75.6	1250
1	11255	75.8	1250
1	11283	76	1250
1	11311	76.2	1250
1	11339	76.4	1250
1	11367	76.6	1250
1	11395	76.8	1250
1	11423	77	1250
1	11451	77.2	1250
1	11479	77.4	1250
1	11507	77.6	1250
1	11535	77.8	1250
1	11563	78	1250
1	11591	78.2	1250
1	11619	78.4	1250
1	11647	78.6	1250
1	11675	78.8	1250
1	11703	79	1250
1	11731	79.2	1250
1	11759	79.4	1250
1	11787	79.6	1250
1	11815	79.8	1250
1	11843	80	1250
1	11871	80.2	1250
1	11899	80.4	1250
1	11927	80.6	1250
1	11955	80.8	1250
1	11983	81	1250
1	12011	81.2	1250
1	12039	81.4	1250
1	12067	81.6	1250
1	12095	81.8	1250
1	12123	82	1250
1	12151	82.2	1250
1	12179	82.4	1250
1	12207	82.6	1250
1	12235	82.8	1250
1	12263	83	1250
1	12291	83.2	1250
1	12319	83.4	1250
1	12347	83.6	1250
1	12375	83.8	1250
1	12403	84	1250
1	12431	84.2	1250
1	12459	84.4	1250
1	12487	84.6	1250
1	12515	84.8	1250
1	12543	85	1250
1	12571	85.2	1250
1	12599	85.4	1250
1	12627	85.6	1250
1	12655	85.8	1250
1	12683	86	1250
1	12711	86.2	1250
1	12739	86.4	1250
1	12767	86.6	1250
1	12795	86.8	1250
1	12823	87	1250
1	12851	87.2	1250
1	12879	87.4	1250
1	12907	87.6	1250
1	12935	87.8	1250
1	12963	88	1250
1	12991	88.2	1250
1	13019	88.4	1250
1	13047	88.6	1250
1	13075	88.8	1250
1	13103	89	1250
1	13131	89.2	1250
1	13159	89.4	1250
1	13187	89.6	1250
1	13215	89.8	1250
1	13245	90	1250
1	13954	90.2	1250
1	14542	90.4	1250
1	15130	90.6	1250
1	15718	90.8	1250
1	16307	91	1250
1	16895	91.2	1250
1	17483	91.4	1250
1	18071	91.6	1250
1	18659	91.8	1250
1	19247	92	1250
1	19835	92.2	1250
1	20423	92.4	1250
1	21011	92.6	1250
1	21599	92.8	1250
1	22187	93	1250
1	22775	93.2	1250
1	23363	93.4	1250
1	23951	93.6	1250
1	24539	93.8	1250
1	25127	94	1250
1	25715	94.2	1250
1	26303	94.4	1250
1	26891	94.6	1250
1	27479	94.8	1250
1	28067	95	1250
1	28655	95.2	1250
1	29243	95.4	1250
1	29831	95.6	1250
1	30419	95.8	1250
1	31007	96	1250
1	31595	96.2	1250
1	32183	96.4	1250
1	32771	96.6	1250
1	33359	96.8	1250
1	33947	97	1250
1	34535	97.2	1250
1	35123	97.4	1250
1	35711	97.6	1250
1	36299	97.8	1250
1	36887	98	1250
1	37475	98.2	1250
1	38063	98.4	1250
1	38651	98.6	1250
1	39239	98.8	1250
1	39827	99	1250
1	40415	99.2	1250
1	41003	99.4	1250
1	41591	99.6	1250
1	42179	99.8	1250
1	42767	100	1250
1	43355	100.2	1250
1	43943	100.4	1250
1	44531	100.6	1250
1	45119	100.8	1250
1	45707	101	1250
1	46295	101.2	1250
1	46883	101.4	1250
1	47471	101.6	1250
1	48059	101.8	1250
1	48647	102	1250
1	49235	102.2	1250
1	49823	102.4	1250
1	50411	102.6	1250
1	50999	102.8	1250
1	51587	103	1250
1	52175	103.2	1250
1	52763	103.4	1250
1	53351	103.6	1250
1	53939	103.8	1250
1	54527	104	1250
1	55115	104.2	1250
1	55703	104.4	1250
1	56291	104.6	1250
1	56879	104.8	1250
1	57467	105	1250
1	58055	105.2	1250
1	58643	105.4	1250
1	59231	105.6	1250
1	59819	105.8	1250
1	60407	106	1250
1	60995	106.2	1250
1	61583	106.4	1250
1	62171	106.6	1250
1	62759	106.8	1250
1	63347	107	1250
1	63935	107.2	1250
1	64523	107.4	1250
1	65111	107.6	1250
1	65699	107.8	1250
1	66287	108	1250
1	66875	108.2	1250
1	67463	108.4	1250
1	68051	108.6	1250
1	68639	108.8	1250
1	69227	109	1250
1	69815	109.2	1250
1	70403	109.4	1250
1	70991	109.6	1250
1	71579	109.8	1250
1	72167	110	1250
1	72755	110.2	1250
1	73343	110.4	1250
1	73931	110.6	1250
1	74519	110.8	1250
1	75107	111	1250
1	75695	111.2	1250
1	76283	111.4	1250
1	76871	111.6	1250
1	77459	111.8	1250
1	78047	112	1250
1	78635	112.2	1250
1	79223	112.4	1250
1	79811	112.6	1250
1	80399	112.8	1250
1	80987	113	1250
1	81575	113.2	1250
1	82163	113.4	1250
1	82751	113.6	1250
1	83339	113.8	1250
1	83927	114	1250
1	84515	114.2	1250
1	85103	114.4	1250
1	85691	114.6	1250
1	86279	114.8	1250
3	157	0.2	1258
3	574	0.4	1258
3	602	0.6	1258
3	630	0.8	1258
3	658	1	1258
3	686	1.2	1258
3	714	1.4	1258
3	742	1.6	1258
3	770	1.8	1258
3	798	2	1258
3	826	2.2	1258
3	854	2.4	1258
3	882	2.6	1258
3	910	2.8	1258
3	938	3	1258
3	966	3.2	1258
3	994	3.4	1258
3	1022	3.6	1258
3	1050	3.8	1258
3	1078	4	1258
3	1106	4.2	1258
3	1134	4.4	1258
3	1162	4.6	1258
3	1190	4.8	1258
3	1218	5	1258
3	1246	5.2	1258
3	1274	5.4	1258
3	1302	5.6	1258
3	1330	5.8	1258
3	1358	6	1258
3	1386	6.2	1258
3	1414	6.4	1258
3	1442	6.6	1258
3	1470	6.8	1258
3	1498	7	1258
3	1526	7.2	1258
3	1554	7.4	1258
3	1582	7.6	1258
3	1610	7.8	1258
3	1638	8	1258
3	1666	8.2	1258
3	1694	8.4	1258
3	1722	8.6	1258
3	1750	8.8	1258
3	1778	9	1258
3	1806	9.2	1258
3	1834	9.4	1258
3	1862	9.6	1258
3	1890	9.8	1258
3	1918	10	1258
3	1946	10.2	1258
3	1974	10.4	1258
3	2002	10.6	1258
3	2030	10.8	1258
3	2058	11	1258
3	2086	11.2	1258
3	2114	11.4	1258
3	2142	11.6	1258
3	2170	11.8	1258
3	2198	12	1258
3	2226	12.2	1258
3	2254	12.4	1258
3	2282	12.6	1258
3	2310	12.8	1258
3	2338	13	1258
3	2366	13.2	1258
3	2394	13.4	1258
3	2422	13.6	1258
3	2450	13.8	1258
3	2478	14	1258
3	2506	14.2	1258
3	2534	14.4	1258
3	2562	14.6	1258
3	2590	14.8	1258
3	2618	15	1258
3	2646	15.2	1258
3	2674	15.4	1258
3	2702	15.6	1258
3	2730	15.8	1258
3	2758	16	1258
3	2786	16.2	1258
3	2814	16.4	1258
3	2842	16.6	1258
3	2870	16.8	1258
3	2898	17	1258
3	2926	17.2	1258
3	2954	17.4	1258
3	2982	17.6	1258
3	3010	17.8	1258
3	3038	18	1258
3	3066	18.2	1258
3	3094	18.4	1258
3	3122	18.6	1258
3	3150	18.8	1258
3	3178	19	1258
3	3206	19.2	1258
3	3234	19.4	1258
3	3262	19.6	1258
3	3290	19.8	1258
3	3318	20	1258
3	3346	20.2	1258
3	3374	20.4	1258
3	3402	20.6	1258
3	3430	20.8	1258
3	3458	21	1258
3	3486	21.2	1258
3	3514	21.4	1258
3	3542	21.6	1258
3	3570	21.8	1258
3	3598	22	1258
3	3626	22.2	1258
3	3654	22.4	1258
3	3682	22.6	1258
3	3710	22.8	1258
3	3738	23	1258
3	3766	23.2	1258
3	3794	23.4	1258
3	3822	23.6	1258
3	3850	23.8	1258
3	3878	24	1258
3	3906	24.2	1258
3	3934	24.4	1258
3	3962	24.6	1258
3	3990	24.8	1258
3	4018	25	1258
3	4046	25.2	1258
3	4074	25.4	1258
3	4102	25.6	1258
3	4130	25.8	1258
3	4158	26	1258
3	4186	26.2	1258
3	4214	26.4	1258
3	4242	26.6	1258
3	4270	26.8	1258
3	4298	27	1258
3	4326	27.2	1258
3	4354	27.4	1258
3	4382	27.6	1258
3	4410	27.8	1258
3	4438	28	1258
3	4466	28.2	1258
3	4494	28.4	1258
3	4522	28.6	1258
3	4550	28.8	1258
3	4578	29	1258
3	4606	29.2	1258
3	4634	29.4	1258
3	4662	29.6	1258
3	4690	29.8	1258
3	4721	30	1258
3	4808	30.2	1258
3	4836	30.4	1258
3	4864	30.6	1258
3	4892	30.8	1258
3	4921	31	1258
3	4949	31.2	1258
3	4977	31.4	1258
3	5005	31.6	1258
3	5033	31.8	1258
3	5061	32	1258
3	5089	32.2	1258
3	5117	32.4	1258
3	5145	32.6	1258
3	5173	32.8	1258
3	5201	33	1258
3	5229	33.2	1258
3	5257	33.4	1258
3	5285	33.6	1258
3	5313	33.8	1258
3	5341	34	1258
3	5369	34.2	1258
3	5397	34.4	1258
3	5425	34.6	1258
3	5453	34.8	1258
3	5481	35	1258
3	5509	35.2	1258
3	5537	35.4	1258
3	5565	35.6	1258
3	5593	35.8	1258
3	5621	36	1258
3	5649	36.2	1258
3	5677	36.4	1258
3	5705	36.6	1258
3	5733	36.8	1258
3	5761	37	1258
3	5789	37.2	1258
3	5817	37.4	1258
3	5845	37.6	1258
3	5873	37.8	1258
3	5901	38	1258
3	5929	38.2	1258
3	5957	38.4	1258
3	5985	38.6	1258
3	6013	38.8	1258
3	6041	39	1258
3	6069	39.2	1258
3	6097	39.4	1258
3	6125	39.6	1258
3	6153	39.8	1258
3	6181	40	1258
3	6209	40.2	1258
3	6237	40.4	1258
3	6265	40.6	1258
3	6293	40.8	1258
3	6321	41	1258
3	6349	41.2	1258
3	6377	41.4	1258
3	6405	41.6	1258
3	6433	41.8	1258
3	6461	42	1258
3	6489	42.2	1258
3	6517	42.4	1258
3	6545	42.6	1258
3	6573	42.8	1258
3	6601	43	1258
3	6629	43.2	1258
3	6657	43.4	1258
3	6685	43.6	1258
3	6713	43.8	1258
3	6741	44	1258
3	6769	44.2	1258
3	6797	44.4	1258
3	6825	44.6	1258
3	6853	44.8	1258
3	6881	45	1258
3	6909	45.2	1258
3	6937	45.4	1258
3	6965	45.6	1258
3	6993	45.8	1258
3	7021	46	1258
3	7049	46.2	1258
3	7077	46.4	1258
3	7105	46.6	1258
3	7133	46.8	1258
3	7161	47	1258
3	7189	47.2	1258
3	7217	47.4	1258
3	7245	47.6	1258
3	7273	47.8	1258
3	7301	48	1258
3	7329	48.2	1258
3	7357	48.4	1258
3	7385	48.6	1258
3	7413	48.8	1258
3	7441	49	1258
3	7469	49.2	1258
3	7497	49.4	1258
3	7525	49.6	1258
3	7553	49.8	1258
3	7581	50	1258
3	7609	50.2	1258
3	7637	50.4	1258
3	7665	50.6	1258
3	7693	50.8	1258
3	7721	51	1258
3	7749	51.2	1258
3	7777	51.4	1258
3	7805	51.6	1258
3	7833	51.8	1258
3	7861	52	1258
3	7889	52.2	1258
3	7917	52.4	1258
3	7945	52.6	1258
3	7973	52.8	1258
3	8001	53	1258
3	8029	53.2	1258
3	8057	53.4	1258
3	8085	53.6	1258
3	8113	53.8	1258
3	8141	54	1258
3	8169	54.2	1258
3	8197	54.4	1258
3	8225	54.6	1258
3	8253	54.8	1258
3	8281	55	1258
3	8309	55.2	1258
3	8337	55.4	1258
3	8365	55.6	1258
3	8393	55.8	1258
3	8421	56	1258
3	8449	56.2	1258
3	8477	56.4	1258
3	8505	56.6	1258
3	8533	56.8	1258
3	8561	57	1258
3	8589	57.2	1258
3	8617	57.4	1258
3	8645	57.6	1258
3	8673	57.8	1258
3	8701	58	1258
3	8729	58.2	1258
3	8757	58.4	1258
3	8785	58.6	1258
3	8813	58.8	1258
3	8841	59	1258
3	8869	59.2	1258
3	8897	59.4	1258
3	8925	59.6	1258
3	8953	59.8	1258
3	8981	60	1258
3	9009	60.2	1258
3	9101	60.4	1258
3	9129	60.6	1258
3	9157	60.8	1258
3	9185	61	1258
3	9213	61.2	1258
3	9241	61.4	1258
3	9269	61.6	1258
3	9297	61.8	1258
3	9325	62	1258
3	9353	62.2	1258
3	9381	62.4	1258
3	9409	62.6	1258
3	9437	62.8	1258
3	9465	63	1258
3	9493	63.2	1258
3	9521	63.4	1258
3	9549	63.6	1258
3	9577	63.8	1258
3	9605	64	1258
3	9633	64.2	1258
3	9661	64.4	1258
3	9689	64.6	1258
3	9717	64.8	1258
3	9745	65	1258
3	9773	65.2	1258
3	9801	65.4	1258
3	9829	65.6	1258
3	9857	65.8	1258
3	9885	66	1258
3	9913	66.2	1258
3	9941	66.4	1258
3	9969	66.6	1258
3	9997	66.8	1258
3	10025	67	1258
3	10053	67.2	1258
3	10081	67.4	1258
3	10109	67.6	1258
3	10137	67.8	1258
3	10165	68	1258
3	10193	68.2	1258
3	10221	68.4	1258
3	10249	68.6	1258
3	10277	68.8	1258
3	10305	69	1258
3	10333	69.2	1258
3	10361	69.4	1258
3	10389	69.6	1258
3	10417	69.8	1258
3	10445	70	1258
3	10473	70.2	1258
3	10501	70.4	1258
3	10529	70.6	1258
3	10557	70.8	1258
3	10585	71	1258
3	10613	71.2	1258
3	10641	71.4	1258
3	10669	71.6	1258
3	10697	71.8	1258
3	10725	72	1258
3	10753	72.2	1258
3	10781	72.4	1258
3	10809	72.6	1258
3	10837	72.8	1258
3	10865	73	1258
3	10893	73.2	1258
3	10921	73.4	1258
3	10949	73.6	1258
3	10977	73.8	1258
3	11005	74	1258
3	11033	74.2	1258
3	11061	74.4	1258
3	11089	74.6	1258
3	11117	74.8	1258
3	11145	75	1258
3	11173	75.2	1258
3	11201	75.4	1258
3	11229	75.6	1258
3	11257	75.8	1258
3	11285	76	1258
3	11313	76.2	1258
3	11341	76.4	1258
3	11369	76.6	1258
3	11397	76.8	1258
3	11425	77	1258
3	11453	77.2	1258
3	11481	77.4	1258
3	11509	77.6	1258
3	11537	77.8	1258
3	11565	78	1258
3	11593	78.2	1258
3	11621	78.4	1258
3	11649	78.6	1258
3	11677	78.8	1258
3	11705	79	1258
3	11733	79.2	1258
3	11761	79.4	1258
3	11789	79.6	1258
3	11817	79.8	1258
3	11845	80	1258
3	11873	80.2	1258
3	11901	80.4	1258
3	11929	80.6	1258
3	11957	80.8	1258
3	11985	81	1258
3	12013	81.2	1258
3	12041	81.4	1258
3	12069	81.6	1258
3	12097	81.8	1258
3	12125	82	1258
3	12153	82.2	1258
3	12181	82.4	1258
3	12209	82.6	1258
3	12237	82.8	1258
3	12265	83	1258
3	12293	83.2	1258
3	12321	83.4	1258
3	12349	83.6	1258
3	12377	83.8	1258
3	12405	84	1258
3	12433	84.2	1258
3	12461	84.4	1258
3	12489	84.6	1258
3	12517	84.8	1258
3	12545	85	1258
3	12573	85.2	1258
3	12601	85.4	1258
3	12629	85.6	1258
3	12657	85.8	1258
3	12685	86	1258
3	12713	86.2	1258
3	12741	86.4	1258
3	12769	86.6	1258
3	12797	86.8	1258
3	12825	87	1258
3	12853	87.2	1258
3	12881	87.4	1258
3	12909	87.6	1258
3	12937	87.8	1258
3	12965	88	1258
3	12993	88.2	1258
3	13021	88.4	1258
3	13049	88.6	1258
3	13077	88.8	1258
3	13105	89	1258
3	13133	89.2	1258
3	13161	89.4	1258
3	13189	89.6	1258
3	13217	89.8	1258
3	13249	90	1258
3	13251	90	1258
3	13424	90.01	1258
3	13452	90.02	1258
3	13480	90.03	1258
3	13508	90.04	1258
3	13536	90.05	1258
3	13564	90.06	1258
3	13592	90.07	1258
3	13620	90.08	1258
3	13648	90.09	1258
3	13676	90.1	1258
3	13704	90.11	1258
3	13732	90.12	1258
3	13760	90.13	1258
3	13788	90.14	1258
3	13816	90.15	1258
3	13844	90.16	1258
3	13872	90.17	1258
3	13900	90.18	1258
3	13928	90.19	1258
3	13958	90.2	1258
3	13959	90.2	1258
3	14012	90.21	1258
3	14040	90.22	1258
3	14068	90.23	1258
3	14096	90.24	1258
3	14124	90.25	1258
3	14152	90.26	1258
3	14180	90.27	1258
3	14208	90.28	1258
3	14236	90.29	1258
3	14264	90.3	1258
3	14292	90.31	1258
3	14320	90.32	1258
3	14348	90.33	1258
3	14376	90.34	1258
3	14404	90.35	1258
3	14432	90.36	1258
3	14460	90.37	1258
3	14488	90.38	1258
3	14516	90.39	1258
3	14546	90.4	1258
3	14547	90.4	1258
3	14600	90.41	1258
3	14628	90.42	1258
3	14656	90.43	1258
3	14684	90.44	1258
3	14712	90.45	1258
3	14740	90.46	1258
3	14768	90.47	1258
3	14796	90.48	1258
3	14824	90.49	1258
3	14852	90.5	1258
3	14880	90.51	1258
3	14908	90.52	1258
3	14936	90.53	1258
3	14964	90.54	1258
3	14992	90.55	1258
3	15020	90.56	1258
3	15048	90.57	1258
3	15076	90.58	1258
3	15104	90.59	1258
3	15134	90.6	1258
3	15135	90.6	1258
3	15188	90.61	1258
3	15216	90.62	1258
3	15244	90.63	1258
3	15272	90.64	1258
3	15300	90.65	1258
3	15328	90.66	1258
3	15356	90.67	1258
3	15384	90.68	1258
3	15412	90.69	1258
3	15440	90.7	1258
3	15468	90.71	1258
3	15496	90.72	1258
3	15524	90.73	1258
3	15552	90.74	1258
3	15580	90.75	1258
3	15608	90.76	1258
3	15636	90.77	1258
3	15664	90.78	1258
3	15692	90.79	1258
3	15722	90.8	1258
3	15723	90.8	1258
3	15776	90.81	1258
3	15804	90.82	1258
3	15832	90.83	1258
3	15860	90.84	1258
3	15888	90.85	1258
3	15916	90.86	1258
3	15944	90.87	1258
3	15972	90.88	1258
3	16000	90.89	1258
3	16028	90.9	1258
3	16056	90.91	1258
3	16084	90.92	1258
3	16112	90.93	1258
3	16140	90.94	1258
3	16168	90.95	1258
3	16196	90.96	1258
3	16224	90.97	1258
3	16252	90.98	1258
3	16280	90.99	1258
3	16311	91	1258
3	16312	91	1258
3	16365	91.01	1258
3	16393	91.02	1258
3	16421	91.03	1258
3	16449	91.04	1258
3	16477	91.05	1258
3	16505	91.06	1258
3	16533	91.07	1258
3	16561	91.08	1258
3	16589	91.09	1258
3	16617	91.1	1258
3	16645	91.11	1258
3	16673	91.12	1258
3	16701	91.13	1258
3	16729	91.14	1258
3	16757	91.15	1258
3	16785	91.16	1258
3	16813	91.17	1258
3	16841	91.18	1258
3	16869	91.19	1258
3	16899	91.2	1258
3	16900	91.2	1258
3	16953	91.21	1258
3	16981	91.22	1258
3	17009	91.23	1258
3	17037	91.24	1258
3	17065	91.25	1258
3	17093	91.26	1258
3	17121	91.27	1258
3	17149	91.28	1258
3	17177	91.29	1258
3	17205	91.3	1258
3	17233	91.31	1258
3	17261	91.32	1258
3	17289	91.33	1258
3	17317	91.34	1258
3	17345	91.35	1258
3	17373	91.36	1258
3	17401	91.37	1258
3	17429	91.38	1258
3	17457	91.39	1258
3	17487	91.4	1258
3	17488	91.4	1258
3	17541	91.41	1258