version 2
run Simple_attack-0-20160826-10:49:17-9541
attr configname Simple_attack
attr datetime 20160826-10:49:17
attr experiment Simple_attack
attr inifile omnetpp.ini
attr iterationvars ""
attr iterationvars2 $repetition=0
attr measurement ""
attr network Scenario
attr processid 9541
attr repetition 0
attr replication #0
attr resultdir results
attr runnumber 0
attr seedset 0

vector 144  Scenario.open_flow_switch.tcp  tcpRcvQueueBytes  ETV
vector 131  Scenario.open_flow_switch.tcp  "advertised window"  ETV
vector 130  Scenario.open_flow_switch.tcp  "receive window"  ETV
vector 133  Scenario.open_flow_switch.tcp  "sent ack"  ETV
vector 74  Scenario.open_flow_switch.networkLayer.arp  sentReq:vector  ETV
attr title  "ARP request sent, vector"
vector 85  Scenario.open_flow_switch.eth[0].encap  encapPk:vector(packetBytes)  ETV
attr interpolationmode  none
attr source  encapPk
attr title  "packets encapsulated, vector(packetBytes)"
vector 81  Scenario.open_flow_switch.eth[0].mac  rxPkFromHL:vector(packetBytes)  ETV
attr interpolationmode  none
attr source  rxPkFromHL
attr title  "packet bytes from higher layer, vector(packetBytes)"
vector 76  Scenario.open_flow_switch.eth[0].mac  txPk:vector(packetBytes)  ETV
attr interpolationmode  none
attr source  txPk
attr title  "packets transmitted, vector(packetBytes)"
vector 94  Scenario.controller.eth[0].mac  rxPkOk:vector(packetBytes)  ETV
attr interpolationmode  none
attr source  rxPkOk
attr title  "packets received OK, vector(packetBytes)"
vector 95  Scenario.controller.eth[0].mac  passedUpPk:vector(packetBytes)  ETV
attr interpolationmode  none
attr source  packetSentToUpper
attr title  "packets passed to higher layer, vector(packetBytes)"
vector 103  Scenario.controller.eth[0].encap  decapPk:vector(packetBytes)  ETV
attr interpolationmode  none
attr source  decapPk
attr title  "packets decapsulated, vector(packetBytes)"
vector 89  Scenario.controller.networkLayer.arp  sentReply:vector  ETV
attr title  "ARP replies sent, vector"
vector 102  Scenario.controller.eth[0].encap  encapPk:vector(packetBytes)  ETV
attr interpolationmode  none
attr source  encapPk
attr title  "packets encapsulated, vector(packetBytes)"
vector 98  Scenario.controller.eth[0].mac  rxPkFromHL:vector(packetBytes)  ETV
attr interpolationmode  none
attr source  rxPkFromHL
attr title  "packet bytes from higher layer, vector(packetBytes)"
vector 93  Scenario.controller.eth[0].mac  txPk:vector(packetBytes)  ETV
attr interpolationmode  none
attr source  txPk
attr title  "packets transmitted, vector(packetBytes)"
vector 77  Scenario.open_flow_switch.eth[0].mac  rxPkOk:vector(packetBytes)  ETV
attr interpolationmode  none
attr source  rxPkOk
attr title  "packets received OK, vector(packetBytes)"
vector 78  Scenario.open_flow_switch.eth[0].mac  passedUpPk:vector(packetBytes)  ETV
attr interpolationmode  none
attr source  packetSentToUpper
attr title  "packets passed to higher layer, vector(packetBytes)"
vector 86  Scenario.open_flow_switch.eth[0].encap  decapPk:vector(packetBytes)  ETV
attr interpolationmode  none
attr source  decapPk
attr title  "packets decapsulated, vector(packetBytes)"
vector 110  Scenario.controller.tcp  "rcvd seq"  ETV
vector 111  Scenario.controller.tcp  "rcvd ack"  ETV
vector 107  Scenario.controller.tcp  "advertised window"  ETV
vector 105  Scenario.controller.tcp  "send window"  ETV
vector 120  Scenario.controller.tcp  tcpRcvQueueBytes  ETV
vector 106  Scenario.controller.tcp  "receive window"  ETV
vector 109  Scenario.controller.tcp  "sent ack"  ETV
vector 134  Scenario.open_flow_switch.tcp  "rcvd seq"  ETV
vector 135  Scenario.open_flow_switch.tcp  "rcvd ack"  ETV
vector 129  Scenario.open_flow_switch.tcp  "send window"  ETV
vector 112  Scenario.controller.tcp  "unacked bytes"  ETV
vector 108  Scenario.controller.tcp  "sent seq"  ETV
vector 137  Scenario.open_flow_switch.tcp  "rcvd dupAcks"  ETV
vector 132  Scenario.open_flow_switch.tcp  "sent seq"  ETV
vector 136  Scenario.open_flow_switch.tcp  "unacked bytes"  ETV
vector 124  Scenario.controller.tcp  "measured RTT"  ETV
vector 125  Scenario.controller.tcp  "smoothed RTT"  ETV
vector 126  Scenario.controller.tcp  RTTVAR  ETV
vector 127  Scenario.controller.tcp  RTO  ETV
vector 122  Scenario.controller.tcp  cwnd  ETV
vector 113  Scenario.controller.tcp  "rcvd dupAcks"  ETV
vector 148  Scenario.open_flow_switch.tcp  "measured RTT"  ETV
vector 149  Scenario.open_flow_switch.tcp  "smoothed RTT"  ETV
vector 150  Scenario.open_flow_switch.tcp  RTTVAR  ETV
vector 151  Scenario.open_flow_switch.tcp  RTO  ETV
vector 146  Scenario.open_flow_switch.tcp  cwnd  ETV
vector 1  Scenario.client.udpApp[0]  sentPk:vector(packetBytes)  ETV
attr interpolationmode  none
attr source  sentPk
attr title  "packets sent, vector(packetBytes)"
vector 3  Scenario.client.udp  sentPk:vector(packetBytes)  ETV
attr interpolationmode  none
attr source  sentPk
attr title  "packets sent, vector(packetBytes)"
vector 4  Scenario.client.udp  sentPk:vector(count)  ETV
attr interpolationmode  none
attr source  sentPk
attr title  "packets sent, vector(count)"
vector 9  Scenario.client.networkLayer.arp  sentReq:vector  ETV
attr title  "ARP request sent, vector"
vector 23  Scenario.client.eth[0].encap  encapPk:vector(packetBytes)  ETV
attr interpolationmode  none
attr source  encapPk
attr title  "packets encapsulated, vector(packetBytes)"
vector 19  Scenario.client.eth[0].mac  rxPkFromHL:vector(packetBytes)  ETV
attr interpolationmode  none
attr source  rxPkFromHL
attr title  "packet bytes from higher layer, vector(packetBytes)"
vector 14  Scenario.client.eth[0].mac  txPk:vector(packetBytes)  ETV
attr interpolationmode  none
attr source  txPk
attr title  "packets transmitted, vector(packetBytes)"
vector 53  Scenario.open_flow_switch.etherMAC[0]  rxPkOk:vector(packetBytes)  ETV
attr interpolationmode  none
attr source  rxPkOk
attr title  "packets received OK, vector(packetBytes)"
vector 54  Scenario.open_flow_switch.etherMAC[0]  passedUpPk:vector(packetBytes)  ETV
attr interpolationmode  none
attr source  packetSentToUpper
attr title  "packets passed to higher layer, vector(packetBytes)"
vector 68  Scenario.open_flow_switch.etherMAC[1]  rxPkFromHL:vector(packetBytes)  ETV
attr interpolationmode  none
attr source  rxPkFromHL
attr title  "packet bytes from higher layer, vector(packetBytes)"
vector 63  Scenario.open_flow_switch.etherMAC[1]  txPk:vector(packetBytes)  ETV
attr interpolationmode  none
attr source  txPk
attr title  "packets transmitted, vector(packetBytes)"
vector 41  Scenario.server.eth[0].mac  rxPkOk:vector(packetBytes)  ETV
attr interpolationmode  none
attr source  rxPkOk
attr title  "packets received OK, vector(packetBytes)"
vector 42  Scenario.server.eth[0].mac  passedUpPk:vector(packetBytes)  ETV
attr interpolationmode  none
attr source  packetSentToUpper
attr title  "packets passed to higher layer, vector(packetBytes)"
vector 50  Scenario.server.eth[0].encap  decapPk:vector(packetBytes)  ETV
attr interpolationmode  none
attr source  decapPk
attr title  "packets decapsulated, vector(packetBytes)"
vector 36  Scenario.server.networkLayer.arp  sentReply:vector  ETV
attr title  "ARP replies sent, vector"
vector 49  Scenario.server.eth[0].encap  encapPk:vector(packetBytes)  ETV
attr interpolationmode  none
attr source  encapPk
attr title  "packets encapsulated, vector(packetBytes)"
vector 45  Scenario.server.eth[0].mac  rxPkFromHL:vector(packetBytes)  ETV
attr interpolationmode  none
attr source  rxPkFromHL
attr title  "packet bytes from higher layer, vector(packetBytes)"
vector 40  Scenario.server.eth[0].mac  txPk:vector(packetBytes)  ETV
attr interpolationmode  none
attr source  txPk
attr title  "packets transmitted, vector(packetBytes)"
vector 64  Scenario.open_flow_switch.etherMAC[1]  rxPkOk:vector(packetBytes)  ETV
attr interpolationmode  none
attr source  rxPkOk
attr title  "packets received OK, vector(packetBytes)"
vector 65  Scenario.open_flow_switch.etherMAC[1]  passedUpPk:vector(packetBytes)  ETV
attr interpolationmode  none
attr source  packetSentToUpper
attr title  "packets passed to higher layer, vector(packetBytes)"
vector 57  Scenario.open_flow_switch.etherMAC[0]  rxPkFromHL:vector(packetBytes)  ETV
attr interpolationmode  none
attr source  rxPkFromHL
attr title  "packet bytes from higher layer, vector(packetBytes)"
vector 52  Scenario.open_flow_switch.etherMAC[0]  txPk:vector(packetBytes)  ETV
attr interpolationmode  none
attr source  txPk
attr title  "packets transmitted, vector(packetBytes)"
vector 15  Scenario.client.eth[0].mac  rxPkOk:vector(packetBytes)  ETV
attr interpolationmode  none
attr source  rxPkOk
attr title  "packets received OK, vector(packetBytes)"
vector 16  Scenario.client.eth[0].mac  passedUpPk:vector(packetBytes)  ETV
attr interpolationmode  none
attr source  packetSentToUpper
attr title  "packets passed to higher layer, vector(packetBytes)"
vector 24  Scenario.client.eth[0].encap  decapPk:vector(packetBytes)  ETV
attr interpolationmode  none
attr source  decapPk
attr title  "packets decapsulated, vector(packetBytes)"
vector 31  Scenario.server.udp  rcvdPk:vector(packetBytes)  ETV
attr interpolationmode  none
attr source  rcvdPk
attr title  "packets received, vector(packetBytes)"
vector 32  Scenario.server.udp  passedUpPk:vector(count)  ETV
attr interpolationmode  none
attr title  "packets passed up, vector(count)"
vector 26  Scenario.server.udpApp[0]  rcvdPk:vector(packetBytes)  ETV
attr interpolationmode  none
attr source  rcvdPk
attr title  "packets received, vector(packetBytes)"
vector 27  Scenario.server.udpApp[0]  rcvdPk:vector(count)  ETV
attr interpolationmode  none
attr source  rcvdPk
attr title  "packets received, vector(count)"
vector 28  Scenario.server.udpApp[0]  rcvdAppPkt:vector  ETV
attr interpolationmode  none
attr source  rcvdAppPkt
attr title  "packets received during sec, vector"
vector 88  Scenario.controller.networkLayer.arp  sentReq:vector  ETV
attr title  "ARP request sent, vector"
vector 75  Scenario.open_flow_switch.networkLayer.arp  sentReply:vector  ETV
attr title  "ARP replies sent, vector"
1	153	0.2	1250
1	566	0.4	1250
1	592	0.6	1250
1	618	0.8	1250
1	644	1	1250
1	670	1.2	1250
1	696	1.4	1250
1	722	1.6	1250
1	748	1.8	1250
1	774	2	1250
1	800	2.2	1250
1	826	2.4	1250
1	852	2.6	1250
1	878	2.8	1250
1	904	3	1250
1	930	3.2	1250
1	956	3.4	1250
1	982	3.6	1250
1	1008	3.8	1250
1	1034	4	1250
1	1060	4.2	1250
1	1086	4.4	1250
1	1112	4.6	1250
1	1138	4.8	1250
1	1164	5	1250
1	1190	5.2	1250
1	1216	5.4	1250
1	1242	5.6	1250
1	1268	5.8	1250
1	1294	6	1250
1	1320	6.2	1250
1	1346	6.4	1250
1	1372	6.6	1250
1	1398	6.8	1250
1	1424	7	1250
1	1450	7.2	1250
1	1476	7.4	1250
1	1502	7.6	1250
1	1528	7.8	1250
1	1554	8	1250
1	1580	8.2	1250
1	1606	8.4	1250
1	1632	8.6	1250
1	1658	8.8	1250
1	1684	9	1250
1	1710	9.2	1250
1	1736	9.4	1250
1	1762	9.6	1250
1	1788	9.8	1250
1	1814	10	1250
1	1840	10.2	1250
1	1866	10.4	1250
1	1892	10.6	1250
1	1918	10.8	1250
1	1944	11	1250
1	1970	11.2	1250
1	1996	11.4	1250
1	2022	11.6	1250
1	2048	11.8	1250
1	2074	12	1250
1	2100	12.2	1250
1	2126	12.4	1250
1	2152	12.6	1250
1	2178	12.8	1250
1	2204	13	1250
1	2230	13.2	1250
1	2256	13.4	1250
1	2282	13.6	1250
1	2308	13.8	1250
1	2334	14	1250
1	2360	14.2	1250
1	2386	14.4	1250
1	2412	14.6	1250
1	2438	14.8	1250
1	2464	15	1250
1	2490	15.2	1250
1	2516	15.4	1250
1	2542	15.6	1250
1	2568	15.8	1250
1	2594	16	1250
1	2620	16.2	1250
1	2646	16.4	1250
1	2672	16.6	1250
1	2698	16.8	1250
1	2724	17	1250
1	2750	17.2	1250
1	2776	17.4	1250
1	2802	17.6	1250
1	2828	17.8	1250
1	2854	18	1250
1	2880	18.2	1250
1	2906	18.4	1250
1	2932	18.6	1250
1	2958	18.8	1250
1	2984	19	1250
1	3010	19.2	1250
1	3036	19.4	1250
1	3062	19.6	1250
1	3088	19.8	1250
1	3114	20	1250
1	3140	20.2	1250
1	3166	20.4	1250
1	3192	20.6	1250
1	3218	20.8	1250
1	3244	21	1250
1	3270	21.2	1250
1	3296	21.4	1250
1	3322	21.6	1250
1	3348	21.8	1250
1	3374	22	1250
1	3400	22.2	1250
1	3426	22.4	1250
1	3452	22.6	1250
1	3478	22.8	1250
1	3504	23	1250
1	3530	23.2	1250
1	3556	23.4	1250
1	3582	23.6	1250
1	3608	23.8	1250
1	3634	24	1250
1	3660	24.2	1250
1	3686	24.4	1250
1	3712	24.6	1250
1	3738	24.8	1250
1	3764	25	1250
1	3790	25.2	1250
1	3816	25.4	1250
1	3842	25.6	1250
1	3868	25.8	1250
1	3894	26	1250
1	3920	26.2	1250
1	3946	26.4	1250
1	3972	26.6	1250
1	3998	26.8	1250
1	4024	27	1250
1	4050	27.2	1250
1	4076	27.4	1250
1	4102	27.6	1250
1	4128	27.8	1250
1	4154	28	1250
1	4180	28.2	1250
1	4206	28.4	1250
1	4232	28.6	1250
1	4258	28.8	1250
1	4284	29	1250
1	4310	29.2	1250
1	4336	29.4	1250
1	4362	29.6	1250
1	4388	29.8	1250
1	4415	30	1250
1	4502	30.2	1250
1	4528	30.4	1250
1	4554	30.6	1250
1	4580	30.8	1250
1	4606	31	1250
1	4632	31.2	1250
1	4658	31.4	1250
1	4684	31.6	1250
1	4710	31.8	1250
1	4736	32	1250
1	4762	32.2	1250
1	4788	32.4	1250
1	4814	32.6	1250
1	4840	32.8	1250
1	4866	33	1250
1	4892	33.2	1250
1	4918	33.4	1250
1	4944	33.6	1250
1	4970	33.8	1250
1	4996	34	1250
1	5022	34.2	1250
1	5048	34.4	1250
1	5074	34.6	1250
1	5100	34.8	1250
1	5126	35	1250
1	5152	35.2	1250
1	5178	35.4	1250
1	5204	35.6	1250
1	5230	35.8	1250
1	5256	36	1250
1	5282	36.2	1250
1	5308	36.4	1250
1	5334	36.6	1250
1	5360	36.8	1250
1	5386	37	1250
1	5412	37.2	1250
1	5438	37.4	1250
1	5464	37.6	1250
1	5490	37.8	1250
1	5516	38	1250
1	5542	38.2	1250
1	5568	38.4	1250
1	5594	38.6	1250
1	5620	38.8	1250
1	5646	39	1250
1	5672	39.2	1250
1	5698	39.4	1250
1	5724	39.6	1250
1	5750	39.8	1250
1	5776	40	1250
1	5802	40.2	1250
1	5828	40.4	1250
1	5854	40.6	1250
1	5880	40.8	1250
1	5906	41	1250
1	5932	41.2	1250
1	5958	41.4	1250
1	5984	41.6	1250
1	6010	41.8	1250
1	6036	42	1250
1	6062	42.2	1250
1	6088	42.4	1250
1	6114	42.6	1250
1	6140	42.8	1250
1	6166	43	1250
1	6192	43.2	1250
1	6218	43.4	1250
1	6244	43.6	1250
1	6270	43.8	1250
1	6296	44	1250
1	6322	44.2	1250
1	6348	44.4	1250
1	6374	44.6	1250
1	6400	44.8	1250
1	6426	45	1250
1	6452	45.2	1250
1	6478	45.4	1250
1	6504	45.6	1250
1	6530	45.8	1250
1	6556	46	1250
1	6582	46.2	1250
1	6608	46.4	1250
1	6634	46.6	1250
1	6660	46.8	1250
1	6686	47	1250
1	6712	47.2	1250
1	6738	47.4	1250
1	6764	47.6	1250
1	6790	47.8	1250
1	6816	48	1250
1	6842	48.2	1250
1	6868	48.4	1250
1	6894	48.6	1250
1	6920	48.8	1250
1	6946	49	1250
1	6972	49.2	1250
1	6998	49.4	1250
1	7024	49.6	1250
1	7050	49.8	1250
1	7076	50	1250
1	7102	50.2	1250
1	7128	50.4	1250
1	7154	50.6	1250
1	7180	50.8	1250
1	7206	51	1250
1	7232	51.2	1250
1	7258	51.4	1250
1	7284	51.6	1250
1	7310	51.8	1250
1	7336	52	1250
1	7362	52.2	1250
1	7388	52.4	1250
1	7414	52.6	1250
1	7440	52.8	1250
1	7466	53	1250
1	7492	53.2	1250
1	7518	53.4	1250
1	7544	53.6	1250
1	7570	53.8	1250
1	7596	54	1250
1	7622	54.2	1250
1	7648	54.4	1250
1	7674	54.6	1250
1	7700	54.8	1250
1	7726	55	1250
1	7752	55.2	1250
1	7778	55.4	1250
1	7804	55.6	1250
1	7830	55.8	1250
1	7856	56	1250
1	7882	56.2	1250
1	7908	56.4	1250
1	7934	56.6	1250
1	7960	56.8	1250
1	7986	57	1250
1	8012	57.2	1250
1	8038	57.4	1250
1	8064	57.6	1250
1	8090	57.8	1250
1	8116	58	1250
1	8142	58.2	1250
1	8168	58.4	1250
1	8194	58.6	1250
1	8220	58.8	1250
1	8246	59	1250
1	8272	59.2	1250
1	8298	59.4	1250
1	8324	59.6	1250
1	8350	59.8	1250
1	8377	60	1250
1	8464	60.2	1250
1	8554	60.4	1250
1	8580	60.6	1250
1	8606	60.8	1250
1	8632	61	1250
1	8658	61.2	1250
1	8684	61.4	1250
1	8710	61.6	1250
1	8736	61.8	1250
1	8762	62	1250
1	8788	62.2	1250
1	8814	62.4	1250
1	8840	62.6	1250
1	8866	62.8	1250
1	8892	63	1250
1	8918	63.2	1250
1	8944	63.4	1250
1	8970	63.6	1250
1	8996	63.8	1250
1	9022	64	1250
1	9048	64.2	1250
1	9074	64.4	1250
1	9100	64.6	1250
1	9126	64.8	1250
1	9152	65	1250
1	9178	65.2	1250
1	9204	65.4	1250
1	9230	65.6	1250
1	9256	65.8	1250
1	9282	66	1250
1	9308	66.2	1250
1	9334	66.4	1250
1	9360	66.6	1250
1	9386	66.8	1250
1	9412	67	1250
1	9438	67.2	1250
1	9464	67.4	1250
1	9490	67.6	1250
1	9516	67.8	1250
1	9542	68	1250
1	9568	68.2	1250
1	9594	68.4	1250
1	9620	68.6	1250
1	9646	68.8	1250
1	9672	69	1250
1	9698	69.2	1250
1	9724	69.4	1250
1	9750	69.6	1250
1	9776	69.8	1250
1	9802	70	1250
1	9828	70.2	1250
1	9854	70.4	1250
1	9880	70.6	1250
1	9906	70.8	1250
1	9932	71	1250
1	9958	71.2	1250
1	9984	71.4	1250
1	10010	71.6	1250
1	10036	71.8	1250
1	10062	72	1250
1	10088	72.2	1250
1	10114	72.4	1250
1	10140	72.6	1250
1	10166	72.8	1250
1	10192	73	1250
1	10218	73.2	1250
1	10244	73.4	1250
1	10270	73.6	1250
1	10296	73.8	1250
1	10322	74	1250
1	10348	74.2	1250
1	10374	74.4	1250
1	10400	74.6	1250
1	10426	74.8	1250
1	10452	75	1250
1	10478	75.2	1250
1	10504	75.4	1250
1	10530	75.6	1250
1	10556	75.8	1250
1	10582	76	1250
1	10608	76.2	1250
1	10634	76.4	1250
1	10660	76.6	1250
1	10686	76.8	1250
1	10712	77	1250
1	10738	77.2	1250
1	10764	77.4	1250
1	10790	77.6	1250
1	10816	77.8	1250
1	10842	78	1250
1	10868	78.2	1250
1	10894	78.4	1250
1	10920	78.6	1250
1	10946	78.8	1250
1	10972	79	1250
1	10998	79.2	1250
1	11024	79.4	1250
1	11050	79.6	1250
1	11076	79.8	1250
1	11102	80	1250
1	11128	80.2	1250
1	11154	80.4	1250
1	11180	80.6	1250
1	11206	80.8	1250
1	11232	81	1250
1	11258	81.2	1250
1	11284	81.4	1250
1	11310	81.6	1250
1	11336	81.8	1250
1	11362	82	1250
1	11388	82.2	1250
1	11414	82.4	1250
1	11440	82.6	1250
1	11466	82.8	1250
1	11492	83	1250
1	11518	83.2	1250
1	11544	83.4	1250
1	11570	83.6	1250
1	11596	83.8	1250
1	11622	84	1250
1	11648	84.2	1250
1	11674	84.4	1250
1	11700	84.6	1250
1	11726	84.8	1250
1	11752	85	1250
1	11778	85.2	1250
1	11804	85.4	1250
1	11830	85.6	1250
1	11856	85.8	1250
1	11882	86	1250
1	11908	86.2	1250
1	11934	86.4	1250
1	11960	86.6	1250
1	11986	86.8	1250
1	12012	87	1250
1	12038	87.2	1250
1	12064	87.4	1250
1	12090	87.6	1250
1	12116	87.8	1250
1	12142	88	1250
1	12168	88.2	1250
1	12194	88.4	1250
1	12220	88.6	1250
1	12246	88.8	1250
1	12272	89	1250
1	12298	89.2	1250
1	12324	89.4	1250
1	12350	89.6	1250
1	12376	89.8	1250
1	12404	90	1250
1	13083	90.2	1250
1	13629	90.4	1250
1	14175	90.6	1250
1	14721	90.8	1250
1	15267	91	1250
1	15813	91.2	1250
1	16359	91.4	1250
1	16905	91.6	1250
1	17451	91.8	1250
1	17997	92	1250
1	18543	92.2	1250
1	19089	92.4	1250
1	19635	92.6	1250
1	20181	92.8	1250
1	20727	93	1250
1	21273	93.2	1250
1	21819	93.4	1250
1	22365	93.6	1250
1	22911	93.8	1250
1	23457	94	1250
1	24003	94.2	1250
1	24549	94.4	1250
1	25095	94.6	1250
1	25641	94.8	1250
1	26187	95	1250
1	26733	95.2	1250
1	27279	95.4	1250
1	27825	95.6	1250
1	28371	95.8	1250
1	28917	96	1250
1	29463	96.2	1250
1	30009	96.4	1250
1	30555	96.6	1250
1	31101	96.8	1250
1	31647	97	1250
1	32193	97.2	1250
1	32739	97.4	1250
1	33285	97.6	1250
1	33831	97.8	1250
1	34377	98	1250
1	34923	98.2	1250
1	35469	98.4	1250
1	36015	98.6	1250
1	36561	98.8	1250
1	37107	99	1250
1	37653	99.2	1250
1	38199	99.4	1250
1	38745	99.6	1250
1	39291	99.8	1250
1	39837	100	1250
1	40383	100.2	1250
1	40929	100.4	1250
1	41475	100.6	1250
1	42021	100.8	1250
1	42567	101	1250
1	43113	101.2	1250
1	43659	101.4	1250
1	44205	101.6	1250
1	44751	101.8	1250
1	45297	102	1250
1	45843	102.2	1250
1	46389	102.4	1250
1	46935	102.6	1250
1	47481	102.8	1250
1	48027	103	1250
1	48573	103.2	1250
1	49119	103.4	1250
1	49665	103.6	1250
1	50211	103.8	1250
1	50757	104	1250
1	51303	104.2	1250
1	51849	104.4	1250
1	52395	104.6	1250
1	52941	104.8	1250
1	53487	105	1250
1	54033	105.2	1250
1	54579	105.4	1250
1	55125	105.6	1250
1	55671	105.8	1250
1	56217	106	1250
1	56763	106.2	1250
1	57309	106.4	1250
1	57855	106.6	1250
1	58401	106.8	1250
1	58947	107	1250
1	59493	107.2	1250
1	60039	107.4	1250
1	60585	107.6	1250
1	61131	107.8	1250
1	61677	108	1250
1	62223	108.2	1250
1	62769	108.4	1250
1	63315	108.6	1250
1	63861	108.8	1250
1	64407	109	1250
1	64953	109.2	1250
1	65499	109.4	1250
1	66045	109.6	1250
1	66591	109.8	1250
1	67137	110	1250
1	67683	110.2	1250
1	68229	110.4	1250
1	68775	110.6	1250
1	69321	110.8	1250
1	69867	111	1250
1	70413	111.2	1250
1	70959	111.4	1250
1	71505	111.6	1250
1	72051	111.8	1250
1	72597	112	1250
1	73143	112.2	1250
1	73689	112.4	1250
1	74235	112.6	1250
1	74781	112.8	1250
1	75327	113	1250
1	75873	113.2	1250
1	76419	113.4	1250
1	76965	113.6	1250
1	77511	113.8	1250
1	78057	114	1250
1	78603	114.2	1250
1	79149	114.4	1250
1	79695	114.6	1250
1	80241	114.8	1250
1	80787	115	1250
1	81333	115.2	1250
1	81879	115.4	1250
1	82425	115.6	1250
1	82971	115.8	1250
1	83517	116	1250
1	84063	116.2	1250
1	84609	116.4	1250
1	85155	116.6	1250
1	85701	116.8	1250
1	86247	117	1250
1	86793	117.2	1250
1	87339	117.4	1250
1	87885	117.6	1250
1	88431	117.8	1250
1	88977	118	1250
1	89523	118.2	1250
1	90069	118.4	1250
1	90615	118.6	1250
1	91161	118.8	1250
1	91707	119	1250
1	92253	119.2	1250
1	92799	119.4	1250
1	93345	119.6	1250
1	93891	119.8	1250
1	94438	120	1250
1	94877	120.2	1250
1	95382	120.4	1250
1	95697	120.6	1250
1	96012	120.8	1250
1	96327	121	1250
1	96642	121.2	1250
1	96957	121.4	1250
1	97272	121.6	1250
1	97587	121.8	1250
1	97902	122	1250
1	98217	122.2	1250
1	98532	122.4	1250
1	98847	122.6	1250
1	99162	122.8	1250
1	99477	123	1250
1	99792	123.2	1250
1	100107	123.4	1250
1	100422	123.6	1250
1	100737	123.8	1250
1	101052	124	1250
1	101367	124.2	1250
1	101682	124.4	1250
1	101997	124.6	1250
1	102312	124.8	1250
1	102627	125	1250
1	102942	125.2	1250
1	103257	125.4	1250
1	103572	125.6	1250
1	103887	125.8	1250
1	104202	126	1250
1	104517	126.2	1250
1	104832	126.4	1250
1	105147	126.6	1250
1	105462	126.8	1250
1	105777	127	1250
1	106092	127.2	1250
1	106407	127.4	1250
1	106722	127.6	1250
1	107037	127.8	1250
1	107352	128	1250
1	107667	128.2	1250
1	107982	128.4	1250
1	108297	128.6	1250
1	108612	128.8	1250
1	108927	129	1250
1	109242	129.2	1250
1	109557	129.4	1250
1	109872	129.6	1250
1	110187	129.8	1250
1	110502	130	1250
1	110817	130.2	1250
1	111132	130.4	1250
1	111447	130.6	1250
1	111762	130.8	1250
1	112077	131	1250
1	112392	131.2	1250
1	112707	131.4	1250
1	113022	131.6	1250
1	113337	131.8	1250
1	113652	132	1250
1	113967	132.2	1250
1	114282	132.4	1250
1	114597	132.6	1250
1	114912	132.8	1250
1	115227	133	1250
1	115542	133.2	1250
1	115857	133.4	1250
1	116172	133.6	1250
1	116487	133.8	1250
1	116802	134	1250
1	117117	134.2	1250
1	117432	134.4	1250
1	117747	134.6	1250
1	118062	134.8	1250
1	118377	135	1250
1	118692	135.2	1250
1	119007	135.4	1250
1	119322	135.6	1250
1	119637	135.8	1250
1	119952	136	1250
1	120267	136.2	1250
1	120582	136.4	1250
1	120897	136.6	1250
1	121212	136.8	1250
1	121527	137	1250
1	121842	137.2	1250
1	122157	137.4	1250
1	122472	137.6	1250
1	122787	137.8	1250
1	123102	138	1250
1	123417	138.2	1250
1	123732	138.4	1250
1	124047	138.6	1250
1	124362	138.8	1250
1	124677	139	1250
1	124992	139.2	1250
1	125307	139.4	1250
1	125622	139.6	1250
1	125937	139.8	1250
1	126252	140	1250
1	126567	140.2	1250
1	126882	140.4	1250
1	127197	140.6	1250
1	127512	140.8	1250
1	127827	141	1250
1	128142	141.2	1250
1	128457	141.4	1250
1	128772	141.6	1250
1	129087	141.8	1250
1	129402	142	1250
1	129717	142.2	1250
1	130032	142.4	1250
1	130347	142.6	1250
1	130662	142.8	1250
1	130977	143	1250
1	131292	143.2	1250
1	131607	143.4	1250
1	131922	143.6	1250
1	132237	143.8	1250
1	132552	144	1250
1	132867	144.2	1250
1	133182	144.4	1250
1	133497	144.6	1250
1	133812	144.8	1250
1	134127	145	1250
1	134442	145.2	1250
1	134757	145.4	1250
1	135072	145.6	1250
1	135387	145.8	1250
1	135702	146	1250
1	136017	146.2	1250
1	136332	146.4	1250
1	136647	146.6	1250
1	136962	146.8	1250
1	137277	147	1250
1	137592	147.2	1250
1	137907	147.4	1250
1	138222	147.6	1250
1	138537	147.8	1250
1	138852	148	1250
1	139167	148.2	1250
1	139482	148.4	1250
1	139797	148.6	1250
1	140112	148.8	1250
1	140427	149	1250
1	140742	149.2	1250
1	141057	149.4	1250
1	141372	149.6	1250
1	141687	149.8	1250
3	157	0.2	1258
3	568	0.4	1258
3	594	0.6	1258
3	620	0.8	1258
3	646	1	1258
3	672	1.2	1258
3	698	1.4	1258
3	724	1.6	1258
3	750	1.8	1258
3	776	2	1258
3	802	2.2	1258
3	828	2.4	1258
3	854	2.6	1258
3	880	2.8	1258
3	906	3	1258
3	932	3.2	1258
3	958	3.4	1258
3	984	3.6	1258
3	1010	3.8	1258
3	1036	4	1258
3	1062	4.2	1258
3	1088	4.4	1258
3	1114	4.6	1258
3	1140	4.8	1258
3	1166	5	1258
3	1192	5.2	1258
3	1218	5.4	1258
3	1244	5.6	1258
3	1270	5.8	1258
3	1296	6	1258
3	1322	6.2	1258
3	1348	6.4	1258
3	1374	6.6	1258
3	1400	6.8	1258
3	1426	7	1258
3	1452	7.2	1258
3	1478	7.4	1258
3	1504	7.6	1258
3	1530	7.8	1258
3	1556	8	1258
3	1582	8.2	1258
3	1608	8.4	1258
3	1634	8.6	1258
3	1660	8.8	1258
3	1686	9	1258
3	1712	9.2	1258
3	1738	9.4	1258
3	1764	9.6	1258
3	1790	9.8	1258
3	1816	10	1258
3	1842	10.2	1258
3	1868	10.4	1258
3	1894	10.6	1258
3	1920	10.8	1258
3	1946	11	1258
3	1972	11.2	1258
3	1998	11.4	1258
3	2024	11.6	1258
3	2050	11.8	1258
3	2076	12	1258
3	2102	12.2	1258
3	2128	12.4	1258
3	2154	12.6	1258
3	2180	12.8	1258
3	2206	13	1258
3	2232	13.2	1258
3	2258	13.4	1258
3	2284	13.6	1258
3	2310	13.8	1258
3	2336	14	1258
3	2362	14.2	1258
3	2388	14.4	1258
3	2414	14.6	1258
3	2440	14.8	1258
3	2466	15	1258
3	2492	15.2	1258
3	2518	15.4	1258
3	2544	15.6	1258
3	2570	15.8	1258
3	2596	16	1258
3	2622	16.2	1258
3	2648	16.4	1258
3	2674	16.6	1258
3	2700	16.8	1258
3	2726	17	1258
3	2752	17.2	1258
3	2778	17.4	1258
3	2804	17.6	1258
3	2830	17.8	1258
3	2856	18	1258
3	2882	18.2	1258
3	2908	18.4	1258
3	2934	18.6	1258
3	2960	18.8	1258
3	2986	19	1258
3	3012	19.2	1258
3	3038	19.4	1258
3	3064	19.6	1258
3	3090	19.8	1258
3	3116	20	1258
3	3142	20.2	1258
3	3168	20.4	1258
3	3194	20.6	1258
3	3220	20.8	1258
3	3246	21	1258
3	3272	21.2	1258
3	3298	21.4	1258
3	3324	21.6	1258
3	3350	21.8	1258
3	3376	22	1258
3	3402	22.2	1258
3	3428	22.4	1258
3	3454	22.6	1258
3	3480	22.8	1258
3	3506	23	1258
3	3532	23.2	1258
3	3558	23.4	1258
3	3584	23.6	1258
3	3610	23.8	1258
3	3636	24	1258
3	3662	24.2	1258
3	3688	24.4	1258
3	3714	24.6	1258
3	3740	24.8	1258
3	3766	25	1258
3	3792	25.2	1258
3	3818	25.4	1258
3	3844	25.6	1258
3	3870	25.8	1258
3	3896	26	1258
3	3922	26.2	1258
3	3948	26.4	1258
3	3974	26.6	1258
3	4000	26.8	1258
3	4026	27	1258
3	4052	27.2	1258
3	4078	27.4	1258
3	4104	27.6	1258
3	4130	27.8	1258
3	4156	28	1258
3	4182	28.2	1258
3	4208	28.4	1258
3	4234	28.6	1258
3	4260	28.8	1258
3	4286	29	1258
3	4312	29.2	1258
3	4338	29.4	1258
3	4364	29.6	1258
3	4390	29.8	1258
3	4419	30	1258
3	4504	30.2	1258
3	4530	30.4	1258
3	4556	30.6	1258
3	4582	30.8	1258
3	4608	31	1258
3	4634	31.2	1258
3	4660	31.4	1258
3	4686	31.6	1258
3	4712	31.8	1258
3	4738	32	1258
3	4764	32.2	1258
3	4790	32.4	1258
3	4816	32.6	1258
3	4842	32.8	1258
3	4868	33	1258
3	4894	33.2	1258
3	4920	33.4	1258
3	4946	33.6	1258
3	4972	33.8	1258
3	4998	34	1258
3	5024	34.2	1258
3	5050	34.4	1258
3	5076	34.6	1258
3	5102	34.8	1258
3	5128	35	1258
3	5154	35.2	1258
3	5180	35.4	1258
3	5206	35.6	1258
3	5232	35.8	1258
3	5258	36	1258
3	5284	36.2	1258
3	5310	36.4	1258
3	5336	36.6	1258
3	5362	36.8	1258
3	5388	37	1258
3	5414	37.2	1258
3	5440	37.4	1258
3	5466	37.6	1258
3	5492	37.8	1258
3	5518	38	1258
3	5544	38.2	1258
3	5570	38.4	1258
3	5596	38.6	1258
3	5622	38.8	1258
3	5648	39	1258
3	5674	39.2	1258
3	5700	39.4	1258
3	5726	39.6	1258
3	5752	39.8	1258
3	5778	40	1258
3	5804	40.2	1258
3	5830	40.4	1258
3	5856	40.6	1258
3	5882	40.8	1258
3	5908	41	1258
3	5934	41.2	1258
3	5960	41.4	1258
3	5986	41.6	1258
3	6012	41.8	1258
3	6038	42	1258
3	6064	42.2	1258
3	6090	42.4	1258
3	6116	42.6	1258
3	6142	42.8	1258
3	6168	43	1258
3	6194	43.2	1258
3	6220	43.4	1258
3	6246	43.6	1258
3	6272	43.8	1258
3	6298	44	1258
3	6324	44.2	1258
3	6350	44.4	1258
3	6376	44.6	1258
3	6402	44.8	1258
3	6428	45	1258
3	6454	45.2	1258
3	6480	45.4	1258
3	6506	45.6	1258
3	6532	45.8	1258
3	6558	46	1258
3	6584	46.2	1258
3	6610	46.4	1258
3	6636	46.6	1258
3	6662	46.8	1258
3	6688	47	1258
3	6714	47.2	1258
3	6740	47.4	1258
3	6766	47.6	1258
3	6792	47.8	1258
3	6818	48	1258
3	6844	48.2	1258
3	6870	48.4	1258
3	6896	48.6	1258
3	6922	48.8	1258
3	6948	49	1258
3	6974	49.2	1258
3	7000	49.4	1258
3	7026	49.6	1258
3	7052	49.8	1258
3	7078	50	1258
3	7104	50.2	1258
3	7130	50.4	1258
3	7156	50.6	1258
3	7182	50.8	1258
3	7208	51	1258
3	7234	51.2	1258
3	7260	51.4	1258
3	7286	51.6	1258
3	7312	51.8	1258
3	7338	52	1258
3	7364	52.2	1258
3	7390	52.4	1258
3	7416	52.6	1258
3	7442	52.8	1258
3	7468	53	1258
3	7494	53.2	1258
3	7520	53.4	1258
3	7546	53.6	1258
3	7572	53.8	1258
3	7598	54	1258
3	7624	54.2	1258
3	7650	54.4	1258
3	7676	54.6	1258
3	7702	54.8	1258
3	7728	55	1258
3	7754	55.2	1258
3	7780	55.4	1258
3	7806	55.6	1258
3	7832	55.8	1258
3	7858	56	1258
3	7884	56.2	1258
3	7910	56.4	1258
3	7936	56.6	1258
3	7962	56.8	1258
3	7988	57	1258
3	8014	57.2	1258
3	8040	57.4	1258
3	8066	57.6	1258
3	8092	57.8	1258
3	8118	58	1258
3	8144	58.2	1258
3	8170	58.4	1258
3	8196	58.6	1258
3	8222	58.8	1258
3	8248	59	1258
3	8274	59.2	1258
3	8300	59.4	1258
3	8326	59.6	1258
3	8352	59.8	1258
3	8381	60	1258
3	8466	60.2	1258
3	8556	60.4	1258
3	8582	60.6	1258
3	8608	60.8	1258
3	8634	61	1258
3	8660	61.2	1258
3	8686	61.4	1258
3	8712	61.6	1258
3	8738	61.8	1258
3	8764	62	1258
3	8790	62.2	1258
3	8816	62.4	1258
3	8842	62.6	1258
3	8868	62.8	1258
3	8894	63	1258
3	8920	63.2	1258
3	8946	63.4	1258
3	8972	63.6	1258
3	8998	63.8	1258
3	9024	64	1258
3	9050	64.2	1258
3	9076	64.4	1258
3	9102	64.6	1258
3	9128	64.8	1258
3	9154	65	1258
3	9180	65.2	1258
3	9206	65.4	1258
3	9232	65.6	1258
3	9258	65.8	1258
3	9284	66	1258
3	9310	66.2	1258
3	9336	66.4	1258
3	9362	66.6	1258
3	9388	66.8	1258
3	9414	67	1258
3	9440	67.2	1258
3	9466	67.4	1258
3	9492	67.6	1258
3	9518	67.8	1258
3	9544	68	1258
3	9570	68.2	1258
3	9596	68.4	1258
3	9622	68.6	1258
3	9648	68.8	1258
3	9674	69	1258
3	9700	69.2	1258
3	9726	69.4	1258
3	9752	69.6	1258
3	9778	69.8	1258
3	9804	70	1258
3	9830	70.2	1258
3	9856	70.4	1258
3	9882	70.6	1258
3	9908	70.8	1258
3	9934	71	1258
3	9960	71.2	1258
3	9986	71.4	1258
3	10012	71.6	1258
3	10038	71.8	1258
3	10064	72	1258
3	10090	72.2	1258
3	10116	72.4	1258
3	10142	72.6	1258
3	10168	72.8	1258
3	10194	73	1258
3	10220	73.2	1258
3	10246	73.4	1258
3	10272	73.6	1258
3	10298	73.8	1258
3	10324	74	1258
3	10350	74.2	1258
3	10376	74.4	1258
3	10402	74.6	1258
3	10428	74.8	1258
3	10454	75	1258
3	10480	75.2	1258
3	10506	75.4	1258
3	10532	75.6	1258
3	10558	75.8	1258
3	10584	76	1258
3	10610	76.2	1258
3	10636	76.4	1258
3	10662	76.6	1258
3	10688	76.8	1258
3	10714	77	1258
3	10740	77.2	1258
3	10766	77.4	1258
3	10792	77.6	1258
3	10818	77.8	1258
3	10844	78	1258
3	10870	78.2	1258
3	10896	78.4	1258
3	10922	78.6	1258
3	10948	78.8	1258
3	10974	79	1258
3	11000	79.2	1258
3	11026	79.4	1258
3	11052	79.6	1258
3	11078	79.8	1258
3	11104	80	1258
3	11130	80.2	1258
3	11156	80.4	1258
3	11182	80.6	1258
3	11208	80.8	1258
3	11234	81	1258
3	11260	81.2	1258
3	11286	81.4	1258
3	11312	81.6	1258